 Entering Gaussian System, Link 0=g09
 Input=freq.com
 Output=freq.log
 Initial command:
 /opt/gaussian/g09/l1.exe /home/ren/x_documents/Raman/Elec_Resonance_Raman/code_Aterm/displacement/Gau-20167.inp -scrdir=/home/ren/x_documents/Raman/Elec_Resonance_Raman/code_Aterm/displacement/
 Entering Link 1 = /opt/gaussian/g09/l1.exe PID=     20168.
  
 Copyright (c) 1988,1990,1992,1993,1995,1998,2003,2009,2010,
            Gaussian, Inc.  All Rights Reserved.
  
 This is part of the Gaussian(R) 09 program.  It is based on
 the Gaussian(R) 03 system (copyright 2003, Gaussian, Inc.),
 the Gaussian(R) 98 system (copyright 1998, Gaussian, Inc.),
 the Gaussian(R) 94 system (copyright 1995, Gaussian, Inc.),
 the Gaussian 92(TM) system (copyright 1992, Gaussian, Inc.),
 the Gaussian 90(TM) system (copyright 1990, Gaussian, Inc.),
 the Gaussian 88(TM) system (copyright 1988, Gaussian, Inc.),
 the Gaussian 86(TM) system (copyright 1986, Carnegie Mellon
 University), and the Gaussian 82(TM) system (copyright 1983,
 Carnegie Mellon University). Gaussian is a federally registered
 trademark of Gaussian, Inc.
  
 This software contains proprietary and confidential information,
 including trade secrets, belonging to Gaussian, Inc.
  
 This software is provided under written license and may be
 used, copied, transmitted, or stored only in accord with that
 written license.
  
 The following legend is applicable only to US Government
 contracts under FAR:
  
                    RESTRICTED RIGHTS LEGEND
  
 Use, reproduction and disclosure by the US Government is
 subject to restrictions as set forth in subparagraphs (a)
 and (c) of the Commercial Computer Software - Restricted
 Rights clause in FAR 52.227-19.
  
 Gaussian, Inc.
 340 Quinnipiac St., Bldg. 40, Wallingford CT 06492
  
  
 ---------------------------------------------------------------
 Warning -- This program may not be used in any manner that
 competes with the business of Gaussian, Inc. or will provide
 assistance to any competitor of Gaussian, Inc.  The licensee
 of this program is prohibited from giving any competitor of
 Gaussian, Inc. access to this program.  By using this program,
 the user acknowledges that Gaussian, Inc. is engaged in the
 business of creating and licensing software in the field of
 computational chemistry and represents and warrants to the
 licensee that it is not a competitor of Gaussian, Inc. and that
 it will not use this program in any manner prohibited above.
 ---------------------------------------------------------------
  

 Cite this work as:
 Gaussian 09, Revision B.01,
 M. J. Frisch, G. W. Trucks, H. B. Schlegel, G. E. Scuseria, 
 M. A. Robb, J. R. Cheeseman, G. Scalmani, V. Barone, B. Mennucci, 
 G. A. Petersson, H. Nakatsuji, M. Caricato, X. Li, H. P. Hratchian, 
 A. F. Izmaylov, J. Bloino, G. Zheng, J. L. Sonnenberg, M. Hada, 
 M. Ehara, K. Toyota, R. Fukuda, J. Hasegawa, M. Ishida, T. Nakajima, 
 Y. Honda, O. Kitao, H. Nakai, T. Vreven, J. A. Montgomery, Jr., 
 J. E. Peralta, F. Ogliaro, M. Bearpark, J. J. Heyd, E. Brothers, 
 K. N. Kudin, V. N. Staroverov, T. Keith, R. Kobayashi, J. Normand, 
 K. Raghavachari, A. Rendell, J. C. Burant, S. S. Iyengar, J. Tomasi, 
 M. Cossi, N. Rega, J. M. Millam, M. Klene, J. E. Knox, J. B. Cross, 
 V. Bakken, C. Adamo, J. Jaramillo, R. Gomperts, R. E. Stratmann, 
 O. Yazyev, A. J. Austin, R. Cammi, C. Pomelli, J. W. Ochterski, 
 R. L. Martin, K. Morokuma, V. G. Zakrzewski, G. A. Voth, 
 P. Salvador, J. J. Dannenberg, S. Dapprich, A. D. Daniels, 
 O. Farkas, J. B. Foresman, J. V. Ortiz, J. Cioslowski, 
 and D. J. Fox, Gaussian, Inc., Wallingford CT, 2010.
 
 ******************************************
 Gaussian 09:  EM64L-G09RevB.01 12-Aug-2010
                 2-Mar-2011 
 ******************************************
 %NProcShared=4
 Will use up to    4 processors via shared memory.
 %Mem=3048MB
 %chk=job.chk
 ----------------------------------------------------------------------
 #p freq=HPmodes b3lyp/6-31+g* nosymm scrf(solvent=water,cpcm) geom=che
 ckpoint
 ----------------------------------------------------------------------
 1/10=4,29=2,30=1,38=1/1,3;
 2/12=2,15=1,40=1/2;
 3/5=1,6=6,7=11,11=2,14=-4,16=1,25=1,30=1,70=2101,71=2,72=1,74=-5/1,2,3;
 4//1;
 5/5=2,38=5,53=1,98=1/2;
 8/6=4,10=90,11=11/1;
 11/6=1,8=1,9=11,15=111,16=1,31=1/1,2,10;
 10/6=1,31=1/2;
 6/7=2,8=2,9=2,10=2,18=1,28=1/1;
 7/8=11,10=1,25=1,30=1/1,2,3,16;
 1/10=4,30=1/3;
 99//99;
 Leave Link    1 at Wed Mar  2 10:05:11 2011, MaxMem=  399507456 cpu:       0.3
 (Enter /opt/gaussian/g09/l101.exe)
 ---------
 imidazole
 ---------
 Redundant internal coordinates taken from checkpoint file:
 job.chk
 Charge =  1 Multiplicity = 1
 C,0,-1.7629123637,2.8022670262,0.0000131393
 N,0,-0.6884679212,2.0100918302,-0.0000155295
 C,0,-1.0807726851,0.6843008972,0.0000141295
 C,0,-2.44504332,0.6842980903,-0.0000057607
 N,0,-2.837353555,2.010087421,-0.0000021549
 H,0,-0.3681145647,-0.1245651935,0.0000228935
 H,0,-3.1576980769,-0.1245709603,-0.0000116435
 H,0,0.2700731631,2.3426419657,-0.0000288391
 H,0,-1.7629146324,3.8808153964,0.0000192918
 H,0,-3.7958960441,2.3426335269,-0.0000055265
 Recover connectivity data from disk.
                    Isotopes and Nuclear Properties:
 (Nuclear quadrupole moments (NQMom) in fm**2, nuclear magnetic moments (NMagM)
  in nuclear magnetons)

  Atom         1           2           3           4           5           6           7           8           9          10
 IAtWgt=          12          14          12          12          14           1           1           1           1           1
 AtmWgt=  12.0000000  14.0030740  12.0000000  12.0000000  14.0030740   1.0078250   1.0078250   1.0078250   1.0078250   1.0078250
 NucSpn=           0           2           0           0           2           1           1           1           1           1
 AtZEff=  -3.6000000  -4.5500000  -3.6000000  -3.6000000  -4.5500000  -1.0000000  -1.0000000  -1.0000000  -1.0000000  -1.0000000
 NQMom=    0.0000000   2.0440000   0.0000000   0.0000000   2.0440000   0.0000000   0.0000000   0.0000000   0.0000000   0.0000000
 NMagM=    0.0000000   0.4037610   0.0000000   0.0000000   0.4037610   2.7928460   2.7928460   2.7928460   2.7928460   2.7928460
 Leave Link  101 at Wed Mar  2 10:05:11 2011, MaxMem=  399507456 cpu:       0.5
 (Enter /opt/gaussian/g09/l103.exe)

 GradGradGradGradGradGradGradGradGradGradGradGradGradGradGradGradGradGrad
 Berny optimization.
 Initialization pass.
                           ----------------------------
                           !    Initial Parameters    !
                           ! (Angstroms and Degrees)  !
 --------------------------                            --------------------------
 ! Name  Definition              Value          Derivative Info.                !
 --------------------------------------------------------------------------------
 ! R1    R(1,2)                  1.3349         calculate D2E/DX2 analytically  !
 ! R2    R(1,5)                  1.3349         calculate D2E/DX2 analytically  !
 ! R3    R(1,9)                  1.0785         calculate D2E/DX2 analytically  !
 ! R4    R(2,3)                  1.3826         calculate D2E/DX2 analytically  !
 ! R5    R(2,8)                  1.0146         calculate D2E/DX2 analytically  !
 ! R6    R(3,4)                  1.3643         calculate D2E/DX2 analytically  !
 ! R7    R(3,6)                  1.078          calculate D2E/DX2 analytically  !
 ! R8    R(4,5)                  1.3826         calculate D2E/DX2 analytically  !
 ! R9    R(4,7)                  1.078          calculate D2E/DX2 analytically  !
 ! R10   R(5,10)                 1.0146         calculate D2E/DX2 analytically  !
 ! A1    A(2,1,5)              107.1979         calculate D2E/DX2 analytically  !
 ! A2    A(2,1,9)              126.401          calculate D2E/DX2 analytically  !
 ! A3    A(5,1,9)              126.401          calculate D2E/DX2 analytically  !
 ! A4    A(1,2,3)              109.9173         calculate D2E/DX2 analytically  !
 ! A5    A(1,2,8)              124.4657         calculate D2E/DX2 analytically  !
 ! A6    A(3,2,8)              125.617          calculate D2E/DX2 analytically  !
 ! A7    A(2,3,4)              106.4837         calculate D2E/DX2 analytically  !
 ! A8    A(2,3,6)              122.1345         calculate D2E/DX2 analytically  !
 ! A9    A(4,3,6)              131.3818         calculate D2E/DX2 analytically  !
 ! A10   A(3,4,5)              106.4837         calculate D2E/DX2 analytically  !
 ! A11   A(3,4,7)              131.3818         calculate D2E/DX2 analytically  !
 ! A12   A(5,4,7)              122.1345         calculate D2E/DX2 analytically  !
 ! A13   A(1,5,4)              109.9173         calculate D2E/DX2 analytically  !
 ! A14   A(1,5,10)             124.4657         calculate D2E/DX2 analytically  !
 ! A15   A(4,5,10)             125.617          calculate D2E/DX2 analytically  !
 ! D1    D(5,1,2,3)             -0.0028         calculate D2E/DX2 analytically  !
 ! D2    D(5,1,2,8)            179.9989         calculate D2E/DX2 analytically  !
 ! D3    D(9,1,2,3)            179.9987         calculate D2E/DX2 analytically  !
 ! D4    D(9,1,2,8)              0.0004         calculate D2E/DX2 analytically  !
 ! D5    D(2,1,5,4)              0.0016         calculate D2E/DX2 analytically  !
 ! D6    D(2,1,5,10)          -179.9987         calculate D2E/DX2 analytically  !
 ! D7    D(9,1,5,4)           -180.0            calculate D2E/DX2 analytically  !
 ! D8    D(9,1,5,10)            -0.0003         calculate D2E/DX2 analytically  !
 ! D9    D(1,2,3,4)              0.003          calculate D2E/DX2 analytically  !
 ! D10   D(1,2,3,6)           -179.9985         calculate D2E/DX2 analytically  !
 ! D11   D(8,2,3,4)           -179.9987         calculate D2E/DX2 analytically  !
 ! D12   D(8,2,3,6)             -0.0002         calculate D2E/DX2 analytically  !
 ! D13   D(2,3,4,5)             -0.0019         calculate D2E/DX2 analytically  !
 ! D14   D(2,3,4,7)            179.9988         calculate D2E/DX2 analytically  !
 ! D15   D(6,3,4,5)            179.9997         calculate D2E/DX2 analytically  !
 ! D16   D(6,3,4,7)              0.0004         calculate D2E/DX2 analytically  !
 ! D17   D(3,4,5,1)              0.0003         calculate D2E/DX2 analytically  !
 ! D18   D(3,4,5,10)          -179.9994         calculate D2E/DX2 analytically  !
 ! D19   D(7,4,5,1)            179.9996         calculate D2E/DX2 analytically  !
 ! D20   D(7,4,5,10)            -0.0001         calculate D2E/DX2 analytically  !
 --------------------------------------------------------------------------------
 Trust Radius=3.00D-01 FncErr=1.00D-07 GrdErr=1.00D-07
 Number of steps in this run=      2 maximum allowed number of steps=      2.
 GradGradGradGradGradGradGradGradGradGradGradGradGradGradGradGradGradGrad

 Leave Link  103 at Wed Mar  2 10:05:11 2011, MaxMem=  399507456 cpu:       0.1
 (Enter /opt/gaussian/g09/l202.exe)
                          Input orientation:                          
 ---------------------------------------------------------------------
 Center     Atomic      Atomic             Coordinates (Angstroms)
 Number     Number       Type             X           Y           Z
 ---------------------------------------------------------------------
      1          6           0       -1.762912    2.802267    0.000013
      2          7           0       -0.688468    2.010092   -0.000016
      3          6           0       -1.080773    0.684301    0.000014
      4          6           0       -2.445043    0.684298   -0.000006
      5          7           0       -2.837354    2.010087   -0.000002
      6          1           0       -0.368115   -0.124565    0.000023
      7          1           0       -3.157698   -0.124571   -0.000012
      8          1           0        0.270073    2.342642   -0.000029
      9          1           0       -1.762915    3.880815    0.000019
     10          1           0       -3.795896    2.342634   -0.000006
 ---------------------------------------------------------------------
                    Distance matrix (angstroms):
                    1          2          3          4          5
     1  C    0.000000
     2  N    1.334905   0.000000
     3  C    2.225106   1.382615   0.000000
     4  C    2.225106   2.200747   1.364271   0.000000
     5  N    1.334905   2.148886   2.200747   1.382615   0.000000
     6  H    3.242192   2.158561   1.078029   2.228877   3.264029
     7  H    3.242192   3.264029   2.228877   1.078029   2.158561
     8  H    2.084295   1.014589   2.138897   3.181503   3.125171
     9  H    1.078548   2.157323   3.268489   3.268489   2.157323
    10  H    2.084295   3.125171   3.181503   2.138897   1.014589
                    6          7          8          9         10
     6  H    0.000000
     7  H    2.789584   0.000000
     8  H    2.548410   4.223358   0.000000
     9  H    4.241290   4.241290   2.549317   0.000000
    10  H    4.223358   2.548410   4.065969   2.549317   0.000000
 Symmetry turned off by external request.
 Stoichiometry    C3H5N2(1+)
 Framework group  C1[X(C3H5N2)]
 Deg. of freedom    24
 Full point group                 C1      NOp   1
 Rotational constants (GHZ):      9.3129071      9.0650066      4.5936424
 Leave Link  202 at Wed Mar  2 10:05:11 2011, MaxMem=  399507456 cpu:       0.0
 (Enter /opt/gaussian/g09/l301.exe)
 Standard basis: 6-31+G(d) (6D, 7F)
 Ernie: Thresh=  0.10000D-02 Tol=  0.10000D-05 Strict=F.
 Integral buffers will be    131072 words long.
 Raffenetti 2 integral format.
 Two-electron integral symmetry is turned off.
   105 basis functions,   180 primitive gaussians,   105 cartesian basis functions
    18 alpha electrons       18 beta electrons
       nuclear repulsion energy       172.8555466373 Hartrees.
 IExCor=  402 DFT=T Ex+Corr=B3LYP ExCW=0 ScaHFX=  0.200000
 ScaDFX=  0.800000  0.720000  1.000000  0.810000 ScalE2=  1.000000  1.000000
 IRadAn=      0 IRanWt=     -1 IRanGd=            0 ICorTp=0
 NAtoms=   10 NActive=   10 NUniq=   10 SFac= 1.00D+00 NAtFMM=   50 NAOKFM=F Big=F
 ------------------------------------------------------------------------------
 Polarizable Continuum Model (PCM)
 =================================
 Model                : C-PCM.
 Atomic radii         : UFF (Universal Force Field).
 Polarization charges : Total charges.
 Charge compensation  : None.
 Solution method      : Matrix inversion.
 Cavity type          : Scaled VdW (van der Waals Surface) (Alpha=1.100).
 Cavity algorithm     : GePol (No added spheres)
                        Default sphere list used, NSphG=   10.
                        Lebedev-Laikov grids with approx.  5.0 points / Ang**2.
                        Smoothing algorithm: Karplus/York (Gamma=1.0000).
                        Polarization charges: spherical gaussians, with
                                              point-specific exponents (IZeta= 3).
                        Self-potential: point-specific (ISelfS= 7).
                        Self-field    : sphere-specific E.n sum rule (ISelfD= 2).
 1st derivatives      : Analytical E(r).r(x)/FMM algorithm (CHGder, D1EAlg=3).
                        Cavity 1st derivative terms included.
 2nd derivatives      : Analytical E(r).r(xy)/FMM algorithm (CHGder, D2EAlg=3).
                        Cavity 2nd derivative terms included.
 Solvent              : Water, Eps=  78.355300 Eps(inf)=   1.777849
 ------------------------------------------------------------------------------
 Spheres list:
 ISph  on   Nord    Re0     Alpha      Xe            Ye            Ze
    1   C      1    1.926   1.100     -1.762912      2.802267      0.000013
    2   N      2    1.830   1.100     -0.688468      2.010092     -0.000016
    3   C      3    1.926   1.100     -1.080773      0.684301      0.000014
    4   C      4    1.926   1.100     -2.445043      0.684298     -0.000006
    5   N      5    1.830   1.100     -2.837354      2.010087     -0.000002
    6   H      6    1.443   1.100     -0.368115     -0.124565      0.000023
    7   H      7    1.443   1.100     -3.157698     -0.124571     -0.000012
    8   H      8    1.443   1.100      0.270073      2.342642     -0.000029
    9   H      9    1.443   1.100     -1.762915      3.880815      0.000019
   10   H     10    1.443   1.100     -3.795896      2.342634     -0.000006
 ------------------------------------------------------------------------------
 GePol: Number of generator spheres                  =      10
 GePol: Total number of spheres                      =      10
 GePol: Number of exposed spheres                    =      10 (100.00%)
 GePol: Number of points                             =     921
 GePol: Average weight of points                     =       0.13
 GePol: Minimum weight of points                     =   0.25D-09
 GePol: Maximum weight of points                     =    0.20577
 GePol: Number of points with low weight             =      44
 GePol: Fraction of low-weight points (<1% of avg)   =       4.78%
 GePol: Cavity surface area                          =    122.801 Ang**2
 GePol: Cavity volume                                =    109.826 Ang**3
 Leave Link  301 at Wed Mar  2 10:05:11 2011, MaxMem=  399507456 cpu:       0.3
 (Enter /opt/gaussian/g09/l302.exe)
 NPDir=0 NMtPBC=     1 NCelOv=     1 NCel=       1 NClECP=     1 NCelD=      1
         NCelK=      1 NCelE2=     1 NClLst=     1 CellRange=     0.0.
 One-electron integrals computed using PRISM.
 NBasis=   105 RedAO= T  NBF=   105
 NBsUse=   105 1.00D-06 NBFU=   105
 Precomputing XC quadrature grid using
 IXCGrd= 2 IRadAn=           0 IRanWt=          -1 IRanGd=           0 AccXCQ= 0.00D+00.
 NRdTot=     638 NPtTot=       81362 NUsed=       85971 NTot=       86003
 NSgBfM=   105   105   105   105   105 NAtAll=    10    10.
 Leave Link  302 at Wed Mar  2 10:05:11 2011, MaxMem=  399507456 cpu:       1.1
 (Enter /opt/gaussian/g09/l303.exe)
 DipDrv:  MaxL=1.
 Leave Link  303 at Wed Mar  2 10:05:11 2011, MaxMem=  399507456 cpu:       0.2
 (Enter /opt/gaussian/g09/l401.exe)
 Harris functional with IExCor=  402 diagonalized for initial guess.
 ExpMin= 4.38D-02 ExpMax= 4.17D+03 ExpMxC= 6.27D+02 IAcc=2 IRadAn=         0 AccDes= 0.00D+00
 HarFok:  IExCor=  402 AccDes= 0.00D+00 IRadAn=         0 IDoV= 1
 ScaDFX=  1.000000  1.000000  1.000000  1.000000
 FoFCou: FMM=F IPFlag=           0 FMFlag=      100000 FMFlg1=           0
         NFxFlg=           0 DoJE=T BraDBF=F KetDBF=T FulRan=T
         Omega=  0.000000  0.000000  1.000000  0.000000  0.000000 ICntrl=     500 IOpCl=  0
         NMat0=    1 NMatS0=    1 NMatT0=    0 NMatD0=    1 NMtDS0=    0 NMtDT0=    0
         I1Cent=           4 NGrid=           0.
 Symmetry not used in FoFCou.
 Harris En= -226.593177991085    
 Leave Link  401 at Wed Mar  2 10:05:12 2011, MaxMem=  399507456 cpu:       3.3
 (Enter /opt/gaussian/g09/l502.exe)
 Closed shell SCF:
 Requested convergence on RMS density matrix=1.00D-08 within 128 cycles.
 Requested convergence on MAX density matrix=1.00D-06.
 Requested convergence on             energy=1.00D-06.
 No special actions if energy rises.
 Using DIIS extrapolation, IDIIS=  1040.
 Two-electron integral symmetry not used.
        85868 words used for storage of precomputed grid.
 Keep R1 ints in memory in canonical form, NReq=19563099.
 IEnd=      138369 IEndB=      138369 NGot=   399507456 MDV=   383909435
 LenX=   383909435 LenY=   383897969
 Symmetry not used in FoFDir.
 MinBra= 0 MaxBra= 2 Meth= 1.
 IRaf=       0 NMat=   1 IRICut=       1 DoRegI=T DoRafI=F ISym2E= 0 JSym2E=0.

 Cycle   1  Pass 1  IDiag  1:
 E= -226.646967471628    
 DIIS: error= 1.66D-02 at cycle   1 NSaved=   1.
 NSaved= 1 IEnMin= 1 EnMin= -226.646967471628     IErMin= 1 ErrMin= 1.66D-02
 ErrMax= 1.66D-02 EMaxC= 1.00D-01 BMatC= 4.28D-02 BMatP= 4.28D-02
 IDIUse=3 WtCom= 8.34D-01 WtEn= 1.66D-01
 Coeff-Com:  0.100D+01
 Coeff-En:   0.100D+01
 Coeff:      0.100D+01
 Gap=     0.219 Goal=   None    Shift=    0.000
 GapD=    0.219 DampG=1.000 DampE=0.500 DampFc=0.5000 IDamp=-1.
 Damping current iteration by 5.00D-01
 RMSDP=4.59D-03 MaxDP=7.11D-02              OVMax= 1.49D-01

 Cycle   2  Pass 1  IDiag  1:
 E= -226.664490052024     Delta-E=       -0.017522580397 Rises=F Damp=T
 DIIS: error= 6.97D-03 at cycle   2 NSaved=   2.
 NSaved= 2 IEnMin= 2 EnMin= -226.664490052024     IErMin= 2 ErrMin= 6.97D-03
 ErrMax= 6.97D-03 EMaxC= 1.00D-01 BMatC= 4.71D-03 BMatP= 4.28D-02
 IDIUse=3 WtCom= 9.30D-01 WtEn= 6.97D-02
 Coeff-Com: -0.191D-01 0.102D+01
 Coeff-En:   0.403D-01 0.960D+00
 Coeff:     -0.149D-01 0.101D+01
 Gap=     0.255 Goal=   None    Shift=    0.000
 RMSDP=1.83D-03 MaxDP=2.92D-02 DE=-1.75D-02 OVMax= 1.13D-01

 Cycle   3  Pass 1  IDiag  1:
 E= -226.683429818742     Delta-E=       -0.018939766718 Rises=F Damp=F
 DIIS: error= 7.07D-03 at cycle   3 NSaved=   3.
 NSaved= 3 IEnMin= 3 EnMin= -226.683429818742     IErMin= 2 ErrMin= 6.97D-03
 ErrMax= 7.07D-03 EMaxC= 1.00D-01 BMatC= 2.77D-03 BMatP= 4.71D-03
 IDIUse=3 WtCom= 9.29D-01 WtEn= 7.07D-02
 Coeff-Com: -0.115D+00 0.471D+00 0.644D+00
 Coeff-En:   0.000D+00 0.000D+00 0.100D+01
 Coeff:     -0.107D+00 0.438D+00 0.669D+00
 Gap=     0.248 Goal=   None    Shift=    0.000
 RMSDP=6.31D-04 MaxDP=2.12D-02 DE=-1.89D-02 OVMax= 3.34D-02

 Cycle   4  Pass 1  IDiag  1:
 E= -226.685768895883     Delta-E=       -0.002339077141 Rises=F Damp=F
 DIIS: error= 2.79D-03 at cycle   4 NSaved=   4.
 NSaved= 4 IEnMin= 4 EnMin= -226.685768895883     IErMin= 4 ErrMin= 2.79D-03
 ErrMax= 2.79D-03 EMaxC= 1.00D-01 BMatC= 4.51D-04 BMatP= 2.77D-03
 IDIUse=3 WtCom= 9.72D-01 WtEn= 2.79D-02
 Coeff-Com: -0.515D-01 0.138D+00 0.354D+00 0.559D+00
 Coeff-En:   0.000D+00 0.000D+00 0.109D+00 0.891D+00
 Coeff:     -0.500D-01 0.134D+00 0.347D+00 0.569D+00
 Gap=     0.250 Goal=   None    Shift=    0.000
 RMSDP=2.14D-04 MaxDP=7.52D-03 DE=-2.34D-03 OVMax= 1.05D-02

 Cycle   5  Pass 1  IDiag  1:
 E= -226.686207286839     Delta-E=       -0.000438390956 Rises=F Damp=F
 DIIS: error= 2.91D-04 at cycle   5 NSaved=   5.
 NSaved= 5 IEnMin= 5 EnMin= -226.686207286839     IErMin= 5 ErrMin= 2.91D-04
 ErrMax= 2.91D-04 EMaxC= 1.00D-01 BMatC= 9.63D-06 BMatP= 4.51D-04
 IDIUse=3 WtCom= 9.97D-01 WtEn= 2.91D-03
 Coeff-Com: -0.128D-01 0.238D-01 0.864D-01 0.211D+00 0.691D+00
 Coeff-En:   0.000D+00 0.000D+00 0.000D+00 0.000D+00 0.100D+01
 Coeff:     -0.128D-01 0.237D-01 0.861D-01 0.211D+00 0.692D+00
 Gap=     0.250 Goal=   None    Shift=    0.000
 RMSDP=3.16D-05 MaxDP=6.12D-04 DE=-4.38D-04 OVMax= 7.63D-04

 Cycle   6  Pass 1  IDiag  1:
 E= -226.686215078210     Delta-E=       -0.000007791372 Rises=F Damp=F
 DIIS: error= 6.73D-05 at cycle   6 NSaved=   6.
 NSaved= 6 IEnMin= 6 EnMin= -226.686215078210     IErMin= 6 ErrMin= 6.73D-05
 ErrMax= 6.73D-05 EMaxC= 1.00D-01 BMatC= 3.20D-07 BMatP= 9.63D-06
 IDIUse=1 WtCom= 1.00D+00 WtEn= 0.00D+00
 Coeff-Com: -0.533D-02 0.965D-02 0.356D-01 0.927D-01 0.326D+00 0.542D+00
 Coeff:     -0.533D-02 0.965D-02 0.356D-01 0.927D-01 0.326D+00 0.542D+00
 Gap=     0.250 Goal=   None    Shift=    0.000
 RMSDP=5.84D-06 MaxDP=1.35D-04 DE=-7.79D-06 OVMax= 2.50D-04

 Cycle   7  Pass 1  IDiag  1:
 E= -226.686215337202     Delta-E=       -0.000000258992 Rises=F Damp=F
 DIIS: error= 2.06D-05 at cycle   7 NSaved=   7.
 NSaved= 7 IEnMin= 7 EnMin= -226.686215337202     IErMin= 7 ErrMin= 2.06D-05
 ErrMax= 2.06D-05 EMaxC= 1.00D-01 BMatC= 4.11D-08 BMatP= 3.20D-07
 IDIUse=1 WtCom= 1.00D+00 WtEn= 0.00D+00
 Coeff-Com: -0.223D-03 0.167D-03 0.709D-03 0.539D-02 0.204D-01 0.265D+00
 Coeff-Com:  0.708D+00
 Coeff:     -0.223D-03 0.167D-03 0.709D-03 0.539D-02 0.204D-01 0.265D+00
 Coeff:      0.708D+00
 Gap=     0.250 Goal=   None    Shift=    0.000
 RMSDP=1.65D-06 MaxDP=2.79D-05 DE=-2.59D-07 OVMax= 4.83D-05

 Cycle   8  Pass 1  IDiag  1:
 E= -226.686215370316     Delta-E=       -0.000000033113 Rises=F Damp=F
 DIIS: error= 2.08D-06 at cycle   8 NSaved=   8.
 NSaved= 8 IEnMin= 8 EnMin= -226.686215370316     IErMin= 8 ErrMin= 2.08D-06
 ErrMax= 2.08D-06 EMaxC= 1.00D-01 BMatC= 5.00D-10 BMatP= 4.11D-08
 IDIUse=1 WtCom= 1.00D+00 WtEn= 0.00D+00
 Coeff-Com:  0.131D-03-0.244D-03-0.120D-02-0.227D-02-0.103D-01 0.128D-01
 Coeff-Com:  0.269D-01 0.974D+00
 Coeff:      0.131D-03-0.244D-03-0.120D-02-0.227D-02-0.103D-01 0.128D-01
 Coeff:      0.269D-01 0.974D+00
 Gap=     0.250 Goal=   None    Shift=    0.000
 RMSDP=2.74D-07 MaxDP=4.49D-06 DE=-3.31D-08 OVMax= 7.74D-06

 Cycle   9  Pass 1  IDiag  1:
 E= -226.686215370838     Delta-E=       -0.000000000523 Rises=F Damp=F
 DIIS: error= 4.14D-07 at cycle   9 NSaved=   9.
 NSaved= 9 IEnMin= 9 EnMin= -226.686215370838     IErMin= 9 ErrMin= 4.14D-07
 ErrMax= 4.14D-07 EMaxC= 1.00D-01 BMatC= 1.03D-11 BMatP= 5.00D-10
 IDIUse=1 WtCom= 1.00D+00 WtEn= 0.00D+00
 Coeff-Com:  0.839D-05-0.106D-04-0.105D-03-0.186D-03-0.113D-02-0.150D-02
 Coeff-Com: -0.991D-02 0.527D-01 0.960D+00
 Coeff:      0.839D-05-0.106D-04-0.105D-03-0.186D-03-0.113D-02-0.150D-02
 Coeff:     -0.991D-02 0.527D-01 0.960D+00
 Gap=     0.250 Goal=   None    Shift=    0.000
 RMSDP=3.99D-08 MaxDP=5.99D-07 DE=-5.23D-10 OVMax= 1.19D-06

 Cycle  10  Pass 1  IDiag  1:
 E= -226.686215370850     Delta-E=       -0.000000000011 Rises=F Damp=F
 DIIS: error= 5.14D-08 at cycle  10 NSaved=  10.
 NSaved=10 IEnMin=10 EnMin= -226.686215370850     IErMin=10 ErrMin= 5.14D-08
 ErrMax= 5.14D-08 EMaxC= 1.00D-01 BMatC= 2.96D-13 BMatP= 1.03D-11
 IDIUse=1 WtCom= 1.00D+00 WtEn= 0.00D+00
 Coeff-Com: -0.226D-05 0.485D-05 0.137D-04 0.355D-04 0.866D-04-0.495D-03
 Coeff-Com: -0.227D-02-0.237D-01 0.114D+00 0.913D+00
 Coeff:     -0.226D-05 0.485D-05 0.137D-04 0.355D-04 0.866D-04-0.495D-03
 Coeff:     -0.227D-02-0.237D-01 0.114D+00 0.913D+00
 Gap=     0.250 Goal=   None    Shift=    0.000
 RMSDP=6.66D-09 MaxDP=1.35D-07 DE=-1.12D-11 OVMax= 1.41D-07

 Error on total polarization charges =  0.00584
 SCF Done:  E(RB3LYP) =  -226.686215371     A.U. after   10 cycles
             Convg  =    0.6660D-08             -V/T =  2.0102
 KE= 2.243996314278D+02 PE=-8.629034883414D+02 EE= 2.389620949054D+02
 Leave Link  502 at Wed Mar  2 10:05:26 2011, MaxMem=  399507456 cpu:      52.3
 (Enter /opt/gaussian/g09/l801.exe)
 Range of M.O.s used for correlation:     1   105
 NBasis=   105 NAE=    18 NBE=    18 NFC=     0 NFV=     0
 NROrb=    105 NOA=    18 NOB=    18 NVA=    87 NVB=    87

 **** Warning!!: The largest alpha MO coefficient is  0.53196081D+02

 Leave Link  801 at Wed Mar  2 10:05:26 2011, MaxMem=  399507456 cpu:       0.2
 (Enter /opt/gaussian/g09/l1101.exe)
 Using compressed storage, NAtomX=    10.
 Will process  11 centers per pass.
 Leave Link 1101 at Wed Mar  2 10:05:26 2011, MaxMem=  399507456 cpu:       0.9
 (Enter /opt/gaussian/g09/l1102.exe)
 Symmetrizing basis deriv contribution to polar:
 IMax=3 JMax=2 DiffMx= 0.00D+00
 Leave Link 1102 at Wed Mar  2 10:05:26 2011, MaxMem=  399507456 cpu:       0.2
 (Enter /opt/gaussian/g09/l1110.exe)
 Forming Gx(P) for the SCF density, NAtomX=    10.
 Integral derivatives from FoFDir/FoFCou, PRISM(SPDF).
 Do as many integral derivatives as possible in FoFDir.
 G2DrvN: MDV=     399507272.
 G2DrvN: will do    11 centers at a time, making    1 passes doing MaxLOS=2.
 Calling FoFCou, ICntrl=  3107 FMM=F I1Cent=   0 AccDes= 0.00D+00.
 FoFCou: FMM=F IPFlag=           0 FMFlag=      100000 FMFlg1=           0
         NFxFlg=           0 DoJE=F BraDBF=F KetDBF=F FulRan=T
         Omega=  0.000000  0.000000  1.000000  0.000000  0.000000 ICntrl=    3107 IOpCl=  0
         NMat0=    1 NMatS0=    1 NMatT0=    0 NMatD0=    1 NMtDS0=    0 NMtDT0=    0
         I1Cent=           0 NGrid=           0.
 Symmetry not used in FoFCou.
 FoFDir/FoFCou used for L=0 through L=2.
 G2PCM: DoFxE=T DoFxN=T DoGrad=T DoPD/DQ/DG=FFF NFrqRd=   0 IEInf=0 DoCFld=F IF1Alg=4.
 GePol: Maximum number of non-zero 1st derivatives   =     205
 End of G2Drv Frequency-dependent properties file   721 does not exist.
 End of G2Drv Frequency-dependent properties file   722 does not exist.
 Leave Link 1110 at Wed Mar  2 10:05:51 2011, MaxMem=  399507456 cpu:      95.5
 (Enter /opt/gaussian/g09/l1002.exe)
 Minotr:  Closed shell wavefunction.
          IDoAtm=1111111111
 NEqPCM:  Using equilibrium solvation (IEInf=0, Eps=  78.3553, EpsInf=   1.7778)
          Direct CPHF calculation.
          Differentiating once with respect to electric field.
                with respect to dipole field.
          Differentiating once with respect to nuclear coordinates.
          Requested convergence is 1.0D-08 RMS, and 1.0D-07 maximum.
          Secondary convergence is 1.0D-12 RMS, and 1.0D-12 maximum.
          NewPWx=T KeepS1=F KeepF1=F KeepIn=T MapXYZ=F SortEE=F KeepMc=T.
          MDV=     399507352 using IRadAn=       2.
 Generate precomputed XC quadrature information.
          Keep R1 ints in memory in canonical form, NReq=16310549.
 Symmetry not used in FoFDir.
 MinBra= 0 MaxBra= 2 Meth= 1.
 IRaf=       0 NMat=   1 IRICut=       1 DoRegI=T DoRafI=F ISym2E= 0 JSym2E=0.
          Solving linear equations simultaneously, MaxMat=       0.
          There are    33 degrees of freedom in the 1st order CPHF.  IDoFFX=5.
     30 vectors produced by pass  0 Test12= 4.75D-15 3.03D-09 XBig12= 4.65D+01 5.11D+00.
 AX will form    30 AO Fock derivatives at one time.
     30 vectors produced by pass  1 Test12= 4.75D-15 3.03D-09 XBig12= 5.31D+00 7.55D-01.
     30 vectors produced by pass  2 Test12= 4.75D-15 3.03D-09 XBig12= 3.45D-02 3.59D-02.
     30 vectors produced by pass  3 Test12= 4.75D-15 3.03D-09 XBig12= 4.83D-05 1.37D-03.
     30 vectors produced by pass  4 Test12= 4.75D-15 3.03D-09 XBig12= 5.20D-08 4.61D-05.
     21 vectors produced by pass  5 Test12= 4.75D-15 3.03D-09 XBig12= 3.23D-11 1.18D-06.
      3 vectors produced by pass  6 Test12= 4.75D-15 3.03D-09 XBig12= 2.20D-14 3.51D-08.
 Inverted reduced A of dimension   174 with in-core refinement.
 FullF1:  Do perturbations    1 to     3.
 Isotropic polarizability for W=    0.000000       49.88 Bohr**3.
 End of Minotr Frequency-dependent properties file   721 does not exist.
 End of Minotr Frequency-dependent properties file   722 does not exist.
 Leave Link 1002 at Wed Mar  2 10:06:17 2011, MaxMem=  399507456 cpu:      99.8
 (Enter /opt/gaussian/g09/l601.exe)
 Copying SCF densities to generalized density rwf, IOpCl= 0 IROHF=0.

 **********************************************************************

            Population analysis using the SCF density.

 **********************************************************************

 Alpha  occ. eigenvalues --  -14.45735 -14.45734 -10.32413 -10.27298 -10.27226
 Alpha  occ. eigenvalues --   -1.10240  -0.96772  -0.82039  -0.71519  -0.67267
 Alpha  occ. eigenvalues --   -0.62757  -0.55910  -0.50581  -0.50227  -0.49140
 Alpha  occ. eigenvalues --   -0.48162  -0.37141  -0.29627
 Alpha virt. eigenvalues --   -0.04669  -0.01030  -0.00248   0.01900   0.02973
 Alpha virt. eigenvalues --    0.04455   0.04702   0.04925   0.05546   0.08945
 Alpha virt. eigenvalues --    0.10131   0.10682   0.11393   0.13609   0.14329
 Alpha virt. eigenvalues --    0.15335   0.15532   0.17869   0.18059   0.19329
 Alpha virt. eigenvalues --    0.19508   0.20300   0.21172   0.23281   0.24963
 Alpha virt. eigenvalues --    0.26593   0.27688   0.29249   0.34330   0.38683
 Alpha virt. eigenvalues --    0.40015   0.44252   0.61884   0.62550   0.65571
 Alpha virt. eigenvalues --    0.65575   0.67591   0.72302   0.79374   0.80009
 Alpha virt. eigenvalues --    0.86073   0.86846   0.87836   0.88723   0.89105
 Alpha virt. eigenvalues --    0.94743   0.99780   1.00226   1.00847   1.08233
 Alpha virt. eigenvalues --    1.12092   1.20699   1.21855   1.25603   1.26551
 Alpha virt. eigenvalues --    1.28332   1.30817   1.30919   1.41304   1.46477
 Alpha virt. eigenvalues --    1.47094   1.60598   1.77951   1.90018   1.98832
 Alpha virt. eigenvalues --    2.01985   2.05977   2.10509   2.14981   2.17645
 Alpha virt. eigenvalues --    2.24074   2.28450   2.28989   2.30243   2.50739
 Alpha virt. eigenvalues --    2.61614   2.63192   2.66807   2.67979   2.89579
 Alpha virt. eigenvalues --    3.00342   3.02002   4.02738   4.03116   4.18188
 Alpha virt. eigenvalues --    4.31770   4.36205
          Condensed to atoms (all electrons):
              1          2          3          4          5          6
     1  C    4.899856   0.425428  -0.134002  -0.134002   0.425428   0.009909
     2  N    0.425428   6.589850   0.371095  -0.080182  -0.087471  -0.041406
     3  C   -0.134002   0.371095   5.235608   0.329541  -0.080182   0.376817
     4  C   -0.134002  -0.080182   0.329541   5.235608   0.371095  -0.032345
     5  N    0.425428  -0.087471  -0.080182   0.371095   6.589850   0.005492
     6  H    0.009909  -0.041406   0.376817  -0.032345   0.005492   0.414939
     7  H    0.009909   0.005492  -0.032345   0.376817  -0.041406  -0.000632
     8  H   -0.035802   0.276666   0.004595  -0.008546   0.013301  -0.002444
     9  H    0.388273  -0.037287   0.002359   0.002359  -0.037287  -0.000052
    10  H   -0.035802   0.013301  -0.008546   0.004595   0.276666  -0.000084
              7          8          9         10
     1  C    0.009909  -0.035802   0.388273  -0.035802
     2  N    0.005492   0.276666  -0.037287   0.013301
     3  C   -0.032345   0.004595   0.002359  -0.008546
     4  C    0.376817  -0.008546   0.002359   0.004595
     5  N   -0.041406   0.013301  -0.037287   0.276666
     6  H   -0.000632  -0.002444  -0.000052  -0.000084
     7  H    0.414939  -0.000084  -0.000052  -0.002444
     8  H   -0.000084   0.261244  -0.001348  -0.000028
     9  H   -0.000052  -0.001348   0.388838  -0.001348
    10  H   -0.002444  -0.000028  -0.001348   0.261244
 Mulliken atomic charges:
              1
     1  C    0.180805
     2  N   -0.435486
     3  C   -0.064940
     4  C   -0.064940
     5  N   -0.435486
     6  H    0.269806
     7  H    0.269806
     8  H    0.492446
     9  H    0.295545
    10  H    0.492446
 Sum of Mulliken atomic charges =   1.00000
 Mulliken charges with hydrogens summed into heavy atoms:
              1
     1  C    0.476350
     2  N    0.056959
     3  C    0.204866
     4  C    0.204866
     5  N    0.056959
 Sum of Mulliken charges with hydrogens summed into heavy atoms =   1.00000
 APT atomic charges:
              1
     1  C    0.273264
     2  N   -0.323676
     3  C    0.046254
     4  C    0.046254
     5  N   -0.323676
     6  H    0.165866
     7  H    0.165866
     8  H    0.379289
     9  H    0.191269
    10  H    0.379289
 Sum of APT charges=   1.00000
 APT Atomic charges with hydrogens summed into heavy atoms:
              1
     1  C    0.464533
     2  N    0.055613
     3  C    0.212120
     4  C    0.212120
     5  N    0.055614
     6  H    0.000000
     7  H    0.000000
     8  H    0.000000
     9  H    0.000000
    10  H    0.000000
 Sum of APT charges=   1.00000
 Electronic spatial extent (au):  <R**2>=           1033.8968
 Charge=              1.0000 electrons
 Dipole moment (field-independent basis, Debye):
    X=             -8.4676    Y=              9.8524    Z=              0.0000  Tot=             12.9912
 Quadrupole moment (field-independent basis, Debye-Ang):
   XX=              2.5707   YY=              2.6054   ZZ=            -30.4310
   XY=            -17.3690   XZ=              0.0000   YZ=              0.0000
 Traceless Quadrupole moment (field-independent basis, Debye-Ang):
   XX=             10.9890   YY=             11.0238   ZZ=            -22.0127
   XY=            -17.3690   XZ=              0.0000   YZ=              0.0000
 Octapole moment (field-independent basis, Debye-Ang**2):
  XXX=             39.0367  YYY=            -39.1419  ZZZ=             -0.0001  XYY=             -4.5931
  XXY=             14.3112  XXZ=             -0.0003  XZZ=             53.6472  YZZ=            -48.6204
  YYZ=              0.0001  XYZ=             -0.0002
 Hexadecapole moment (field-independent basis, Debye-Ang**3):
 XXXX=           -273.6895 YYYY=           -287.0096 ZZZZ=            -31.5821 XXXY=             32.2722
 XXXZ=              0.0012 YYYX=             69.0037 YYYZ=              0.0008 ZZZX=              0.0001
 ZZZY=             -0.0001 XXYY=            -48.6843 XXZZ=           -128.7681 YYZZ=           -115.0004
 XXYZ=              0.0000 YYXZ=             -0.0008 ZZXY=             85.7134
 N-N= 1.728555466373D+02 E-N=-8.629034886043D+02  KE= 2.243996314278D+02
  Exact polarizability:  58.114   0.000  60.733   0.000   0.000  30.802
 Approx polarizability:  74.485   0.000  73.658   0.000   0.000  34.602
 No NMR shielding tensors so no spin-rotation constants.
 Leave Link  601 at Wed Mar  2 10:06:17 2011, MaxMem=  399507456 cpu:       0.9
 (Enter /opt/gaussian/g09/l701.exe)
 Compute integral second derivatives.
 ... and contract with generalized density number  0.
 D2PCM: C-PCM CHGder 2nd derivatives, FixD1E=F FixD2E=F DoIter=F DoCFld=F I1PDM=0
 GePol: Maximum number of non-zero 2nd derivatives   =     205
 Leave Link  701 at Wed Mar  2 10:06:23 2011, MaxMem=  399507456 cpu:      19.7
 (Enter /opt/gaussian/g09/l702.exe)
 L702 exits ... SP integral derivatives will be done elsewhere.
 Leave Link  702 at Wed Mar  2 10:06:23 2011, MaxMem=  399507456 cpu:       0.2
 (Enter /opt/gaussian/g09/l703.exe)
 Compute integral second derivatives, UseDBF=F ICtDFT=           0.
 Integral derivatives from FoFDir, PRISM(SPDF).
 Calling FoFJK, ICntrl=    100127 FMM=F ISym2X=0 I1Cent= 0 IOpClX= 0 NMat=1 NMatS=1 NMatT=0.
 FoFCou: FMM=F IPFlag=           0 FMFlag=      100000 FMFlg1=         800
         NFxFlg=           0 DoJE=F BraDBF=F KetDBF=F FulRan=T
         Omega=  0.000000  0.000000  1.000000  0.000000  0.000000 ICntrl=  100127 IOpCl=  0
         NMat0=    1 NMatS0=    1 NMatT0=    0 NMatD0=    1 NMtDS0=    0 NMtDT0=    0
         I1Cent=           0 NGrid=           0.
 Symmetry not used in FoFCou.
 Leave Link  703 at Wed Mar  2 10:07:00 2011, MaxMem=  399507456 cpu:     144.4
 (Enter /opt/gaussian/g09/l716.exe)
 Dipole        =-3.33141872D+00 3.87625212D+00-1.52127605D-06
 Polarizability= 5.81141402D+01-5.38587040D-06 6.07330759D+01
                 1.05478635D-04 6.51057426D-05 3.08018593D+01
 Full mass-weighted force constant matrix:
 Low frequencies ---  -29.8064    0.0008    0.0011    0.0011   13.3846   44.5715
 Low frequencies ---  618.7783  625.3194  683.2031
 Harmonic frequencies (cm**-1), IR intensities (KM/Mole), Raman scattering
 activities (A**4/AMU), depolarization ratios for plane and unpolarized
 incident light, reduced masses (AMU), force constants (mDyne/A),
 and normal coordinates:
                           1         2         3         4         5
                           A         A         A         A         A
       Frequencies ---   618.7782  625.3194  683.2003  726.2702  746.6890
    Reduced masses ---     2.8152    3.6961    1.1971    1.2058    1.2054
   Force constants ---     0.6351    0.8515    0.3292    0.3747    0.3960
    IR Intensities ---   105.8054    0.0000    0.0000  228.3940  117.2468
 Coord Atom Element:
   1     1     6          0.00000   0.00000   0.00000   0.00000   0.00000
   2     1     6          0.00000   0.00000   0.00000   0.00000   0.00000
   3     1     6          0.20189   0.00000   0.00000   0.13341  -0.03432
   1     2     7          0.00000   0.00000   0.00000   0.00000   0.00000
   2     2     7          0.00000   0.00000   0.00000   0.00000   0.00000
   3     2     7         -0.21572   0.20197   0.06701  -0.00863  -0.01291
   1     3     6          0.00000   0.00000   0.00000   0.00000   0.00000
   2     3     6          0.00000   0.00000   0.00000   0.00000   0.00000
   3     3     6          0.08257  -0.27214   0.05744   0.00429   0.09055
   1     4     6          0.00000   0.00000   0.00000   0.00000   0.00000
   2     4     6          0.00000   0.00000   0.00000   0.00000   0.00000
   3     4     6          0.08258   0.27213  -0.05744   0.00429   0.09055
   1     5     7          0.00000   0.00000   0.00000   0.00000   0.00000
   2     5     7          0.00000   0.00000   0.00000   0.00000   0.00000
   3     5     7         -0.21572  -0.20197  -0.06701  -0.00863  -0.01291
   1     6     1          0.00000   0.00000   0.00000   0.00000   0.00000
   2     6     1          0.00000  -0.00001   0.00000   0.00000  -0.00001
   3     6     1          0.22644  -0.61991  -0.03013   0.06303  -0.67310
   1     7     1          0.00000   0.00000   0.00000   0.00000   0.00001
   2     7     1          0.00000   0.00000   0.00000   0.00000   0.00000
   3     7     1          0.22644   0.61991   0.03012   0.06303  -0.67310
   1     8     1          0.00000   0.00000  -0.00001  -0.00001   0.00000
   2     8     1          0.00000   0.00000  -0.00001  -0.00001   0.00000
   3     8     1          0.16964   0.02940  -0.70093  -0.68123  -0.12625
   1     9     1          0.00000   0.00000   0.00000   0.00000   0.00000
   2     9     1         -0.00001   0.00000   0.00000   0.00000   0.00000
   3     9     1          0.83212  -0.00001   0.00000  -0.21427   0.20994
   1    10     1          0.00000   0.00000  -0.00001   0.00001   0.00000
   2    10     1          0.00000   0.00000  -0.00001   0.00000   0.00000
   3    10     1          0.16964  -0.02940   0.70093  -0.68123  -0.12625
                           6         7         8         9        10
                           A         A         A         A         A
       Frequencies ---   861.2743  877.1838  921.0080  942.3712 1065.6221
    Reduced masses ---     1.3043    1.3208    5.0641    4.3238    1.5276
   Force constants ---     0.5700    0.5988    2.5309    2.2624    1.0220
    IR Intensities ---     0.0333    0.0000    0.6867    0.5173   69.5357
 Coord Atom Element:
   1     1     6          0.00000   0.00000   0.09217   0.00000  -0.06197
   2     1     6          0.00000   0.00000   0.00000  -0.29671   0.00000
   3     1     6         -0.13827   0.00000   0.00000   0.00001   0.00000
   1     2     7          0.00000   0.00000   0.18078   0.26986   0.06322
   2     2     7          0.00000   0.00000   0.16758   0.01437   0.05337
   3     2     7          0.05424   0.01671   0.00000   0.00000   0.00000
   1     3     6          0.00000   0.00000  -0.24101   0.01237   0.00654
   2     3     6          0.00000   0.00000   0.22436   0.14256  -0.11656
   3     3     6         -0.02114  -0.11792   0.00000   0.00000   0.00000
   1     4     6          0.00000   0.00000  -0.24101  -0.01237   0.00654
   2     4     6          0.00000   0.00000  -0.22436   0.14256   0.11656
   3     4     6         -0.02114   0.11792   0.00000   0.00000   0.00000
   1     5     7          0.00000   0.00000   0.18078  -0.26986   0.06322
   2     5     7          0.00000   0.00000  -0.16758   0.01437  -0.05337
   3     5     7          0.05424  -0.01671   0.00000   0.00000   0.00000
   1     6     1          0.00000   0.00000  -0.24620  -0.40457  -0.31650
   2     6     1          0.00000   0.00001   0.24244  -0.21654  -0.40964
   3     6     1          0.18220   0.68618  -0.00004   0.00001   0.00001
   1     7     1          0.00000   0.00001  -0.24620   0.40457  -0.31650
   2     7     1          0.00000   0.00000  -0.24244  -0.21654   0.40964
   3     7     1          0.18220  -0.68618   0.00000   0.00001   0.00000
   1     8     1          0.00000   0.00000   0.28941   0.20542   0.00510
   2     8     1          0.00000   0.00000  -0.11752   0.24422   0.23961
   3     8     1         -0.29066  -0.12236  -0.00002  -0.00002  -0.00001
   1     9     1          0.00001   0.00000  -0.46820   0.00000  -0.55171
   2     9     1         -0.00001   0.00000   0.00000  -0.31644   0.00000
   3     9     1          0.85950   0.00000   0.00000  -0.00003   0.00000
   1    10     1          0.00000   0.00000   0.28941  -0.20542   0.00510
   2    10     1          0.00001   0.00000   0.11753   0.24422  -0.23961
   3    10     1         -0.29066   0.12236   0.00001   0.00001   0.00000
                          11        12        13        14        15
                           A         A         A         A         A
       Frequencies ---  1121.6679 1131.9674 1186.7453 1222.6828 1344.7176
    Reduced masses ---     1.3097    2.1312    1.1671    2.4503    1.5458
   Force constants ---     0.9709    1.6090    0.9685    2.1583    1.6469
    IR Intensities ---    34.2706   12.2049    0.0645   22.3783    0.0198
 Coord Atom Element:
   1     1     6          0.00000   0.00000   0.05253   0.00000  -0.10140
   2     1     6         -0.11070  -0.03880   0.00000   0.18189   0.00000
   3     1     6          0.00000   0.00000   0.00000   0.00000   0.00000
   1     2     7          0.01314  -0.02616  -0.00877   0.17661  -0.00832
   2     2     7          0.02819  -0.12232   0.06629   0.02376  -0.01658
   3     2     7          0.00000   0.00000   0.00000   0.00000   0.00000
   1     3     6          0.07645   0.00142  -0.02344   0.04999   0.07903
   2     3     6         -0.02484   0.17846   0.00556  -0.09503   0.11260
   3     3     6          0.00000   0.00000   0.00000   0.00000   0.00000
   1     4     6         -0.07645  -0.00143  -0.02344  -0.04998   0.07903
   2     4     6         -0.02484   0.17846  -0.00557  -0.09503  -0.11260
   3     4     6          0.00000   0.00000   0.00000   0.00000   0.00000
   1     5     7         -0.01314   0.02616  -0.00877  -0.17661  -0.00832
   2     5     7          0.02819  -0.12232  -0.06629   0.02376   0.01658
   3     5     7          0.00000   0.00000   0.00000   0.00000   0.00000
   1     6     1          0.52468   0.18067  -0.17227   0.26500  -0.44372
   2     6     1          0.35834   0.35798  -0.12050   0.06913  -0.34337
   3     6     1          0.00000   0.00000   0.00000   0.00000   0.00000
   1     7     1         -0.52468  -0.18068  -0.17228  -0.26498  -0.44372
   2     7     1          0.35834   0.35797   0.12049   0.06912   0.34337
   3     7     1         -0.00001   0.00000   0.00000   0.00000  -0.00001
   1     8     1         -0.06778   0.10851  -0.11745   0.36691   0.10301
   2     8     1          0.26589  -0.52718   0.38705  -0.45631  -0.34910
   3     8     1          0.00000   0.00000   0.00000   0.00000   0.00000
   1     9     1         -0.00001   0.00002   0.75600  -0.00002   0.23800
   2     9     1         -0.12210  -0.05017   0.00000   0.21139   0.00000
   3     9     1         -0.00001   0.00001  -0.00001   0.00000   0.00000
   1    10     1          0.06778  -0.10851  -0.11746  -0.36690   0.10300
   2    10     1          0.26589  -0.52720  -0.38705  -0.45629   0.34910
   3    10     1          0.00000   0.00000   0.00000  -0.00001   0.00000
                          16        17        18        19        20
                           A         A         A         A         A
       Frequencies ---  1468.4433 1481.4021 1567.6621 1636.1748 3323.2539
    Reduced masses ---     2.1341    3.7194    3.7917    2.9330    1.0942
   Force constants ---     2.7113    4.8092    5.4902    4.6262    7.1201
    IR Intensities ---    19.2165   11.1025   20.2972   59.4013   17.0706
 Coord Atom Element:
   1     1     6          0.02701   0.00000   0.40597   0.00000  -0.00175
   2     1     6          0.00000   0.20745   0.00000  -0.12658   0.00000
   3     1     6          0.00000   0.00000   0.00000   0.00000   0.00000
   1     2     7         -0.04424   0.03160  -0.17085  -0.09178  -0.00078
   2     2     7          0.16771  -0.17557   0.03834   0.11819   0.00058
   3     2     7          0.00000   0.00000   0.00000   0.00000   0.00000
   1     3     6         -0.00319   0.24347   0.06204   0.23037   0.04013
   2     3     6         -0.12366   0.07017   0.06426   0.00445  -0.04814
   3     3     6          0.00000   0.00000   0.00000   0.00000   0.00000
   1     4     6         -0.00318  -0.24347   0.06204  -0.23037   0.04013
   2     4     6          0.12366   0.07017  -0.06426   0.00444   0.04814
   3     4     6          0.00000   0.00000   0.00000   0.00000   0.00000
   1     5     7         -0.04423  -0.03160  -0.17085   0.09177  -0.00078
   2     5     7         -0.16771  -0.17557  -0.03834   0.11819  -0.00058
   3     5     7          0.00000   0.00000   0.00000   0.00000   0.00000
   1     6     1          0.12388  -0.07917  -0.26148  -0.11931  -0.46436
   2     6     1         -0.03094  -0.24977  -0.20937  -0.36341   0.52951
   3     6     1          0.00000   0.00001   0.00001   0.00001  -0.00001
   1     7     1          0.12388   0.07918  -0.26148   0.11931  -0.46435
   2     7     1          0.03094  -0.24977   0.20937  -0.36341  -0.52951
   3     7     1          0.00000   0.00000   0.00000   0.00000   0.00000
   1     8     1          0.22186  -0.19493  -0.17719   0.10975   0.00790
   2     8     1         -0.58830   0.49536  -0.00462  -0.49401  -0.00219
   3     8     1          0.00000   0.00000   0.00001   0.00000   0.00000
   1     9     1          0.29200   0.00000  -0.68605   0.00000  -0.00031
   2     9     1          0.00000   0.24664   0.00000  -0.16805   0.00000
   3     9     1          0.00000   0.00001   0.00001   0.00000   0.00000
   1    10     1          0.22185   0.19493  -0.17719  -0.10975   0.00790
   2    10     1          0.58830   0.49538   0.00462  -0.49401   0.00219
   3    10     1          0.00001   0.00001   0.00000  -0.00001   0.00000
                          21        22        23        24
                           A         A         A         A
       Frequencies ---  3334.5872 3339.4585 3618.4938 3625.1154
    Reduced masses ---     1.1029    1.1103    1.0815    1.0870
   Force constants ---     7.2257    7.2956    8.3435    8.4164
    IR Intensities ---    54.2384    1.2241  449.7227   34.3204
 Coord Atom Element:
   1     1     6          0.00000   0.00000  -0.00262   0.00000
   2     1     6          0.08675  -0.03414   0.00000  -0.00438
   3     1     6          0.00000   0.00000   0.00000   0.00000
   1     2     7          0.00141   0.00010   0.05013  -0.05254
   2     2     7         -0.00397  -0.00106   0.01781  -0.01658
   3     2     7          0.00000   0.00000   0.00000   0.00000
   1     3     6         -0.01780  -0.04506  -0.00103  -0.00087
   2     3     6          0.01501   0.04527  -0.00171   0.00182
   3     3     6          0.00000   0.00000   0.00000   0.00000
   1     4     6          0.01780   0.04506  -0.00103   0.00087
   2     4     6          0.01501   0.04527   0.00171   0.00182
   3     4     6          0.00000   0.00000   0.00000   0.00000
   1     5     7         -0.00141  -0.00010   0.05012   0.05254
   2     5     7         -0.00397  -0.00106  -0.01781  -0.01658
   3     5     7          0.00000   0.00000   0.00000   0.00000
   1     6     1          0.16474   0.43820  -0.00355   0.00429
   2     6     1         -0.18524  -0.49166   0.00566  -0.00757
   3     6     1          0.00000   0.00000   0.00000   0.00000
   1     7     1         -0.16474  -0.43820  -0.00355  -0.00429
   2     7     1         -0.18524  -0.49166  -0.00566  -0.00757
   3     7     1          0.00000   0.00000   0.00000   0.00000
   1     8     1          0.01131  -0.01649  -0.66657   0.66568
   2     8     1          0.01106  -0.00441  -0.22989   0.23118
   3     8     1          0.00000   0.00000   0.00001  -0.00001
   1     9     1          0.00000   0.00000   0.00294   0.00000
   2     9     1         -0.93164   0.35013   0.00000   0.02218
   3     9     1         -0.00001   0.00000   0.00000   0.00000
   1    10     1         -0.01131   0.01649  -0.66650  -0.66576
   2    10     1          0.01106  -0.00441   0.22986   0.23120
   3    10     1          0.00000   0.00000   0.00000   0.00000
 Harmonic frequencies (cm**-1), IR intensities (KM/Mole), Raman scattering
 activities (A**4/AMU), depolarization ratios for plane and unpolarized
 incident light, reduced masses (AMU), force constants (mDyne/A),
 and normal coordinates:
                     1                      2                      3
                     A                      A                      A
 Frequencies --   618.7782               625.3194               683.2003
 Red. masses --     2.8152                 3.6961                 1.1971
 Frc consts  --     0.6351                 0.8515                 0.3292
 IR Inten    --   105.8054                 0.0000                 0.0000
  Atom  AN      X      Y      Z        X      Y      Z        X      Y      Z
     1   6     0.00   0.00   0.20     0.00   0.00   0.00     0.00   0.00   0.00
     2   7     0.00   0.00  -0.22     0.00   0.00   0.20     0.00   0.00   0.07
     3   6     0.00   0.00   0.08     0.00   0.00  -0.27     0.00   0.00   0.06
     4   6     0.00   0.00   0.08     0.00   0.00   0.27     0.00   0.00  -0.06
     5   7     0.00   0.00  -0.22     0.00   0.00  -0.20     0.00   0.00  -0.07
     6   1     0.00   0.00   0.23     0.00   0.00  -0.62     0.00   0.00  -0.03
     7   1     0.00   0.00   0.23     0.00   0.00   0.62     0.00   0.00   0.03
     8   1     0.00   0.00   0.17     0.00   0.00   0.03     0.00   0.00  -0.70
     9   1     0.00   0.00   0.83     0.00   0.00   0.00     0.00   0.00   0.00
    10   1     0.00   0.00   0.17     0.00   0.00  -0.03     0.00   0.00   0.70
                     4                      5                      6
                     A                      A                      A
 Frequencies --   726.2702               746.6890               861.2743
 Red. masses --     1.2058                 1.2054                 1.3043
 Frc consts  --     0.3747                 0.3960                 0.5700
 IR Inten    --   228.3940               117.2468                 0.0333
  Atom  AN      X      Y      Z        X      Y      Z        X      Y      Z
     1   6     0.00   0.00   0.13     0.00   0.00  -0.03     0.00   0.00  -0.14
     2   7     0.00   0.00  -0.01     0.00   0.00  -0.01     0.00   0.00   0.05
     3   6     0.00   0.00   0.00     0.00   0.00   0.09     0.00   0.00  -0.02
     4   6     0.00   0.00   0.00     0.00   0.00   0.09     0.00   0.00  -0.02
     5   7     0.00   0.00  -0.01     0.00   0.00  -0.01     0.00   0.00   0.05
     6   1     0.00   0.00   0.06     0.00   0.00  -0.67     0.00   0.00   0.18
     7   1     0.00   0.00   0.06     0.00   0.00  -0.67     0.00   0.00   0.18
     8   1     0.00   0.00  -0.68     0.00   0.00  -0.13     0.00   0.00  -0.29
     9   1     0.00   0.00  -0.21     0.00   0.00   0.21     0.00   0.00   0.86
    10   1     0.00   0.00  -0.68     0.00   0.00  -0.13     0.00   0.00  -0.29
                     7                      8                      9
                     A                      A                      A
 Frequencies --   877.1838               921.0080               942.3712
 Red. masses --     1.3208                 5.0641                 4.3238
 Frc consts  --     0.5988                 2.5309                 2.2624
 IR Inten    --     0.0000                 0.6867                 0.5173
  Atom  AN      X      Y      Z        X      Y      Z        X      Y      Z
     1   6     0.00   0.00   0.00     0.09   0.00   0.00     0.00  -0.30   0.00
     2   7     0.00   0.00   0.02     0.18   0.17   0.00     0.27   0.01   0.00
     3   6     0.00   0.00  -0.12    -0.24   0.22   0.00     0.01   0.14   0.00
     4   6     0.00   0.00   0.12    -0.24  -0.22   0.00    -0.01   0.14   0.00
     5   7     0.00   0.00  -0.02     0.18  -0.17   0.00    -0.27   0.01   0.00
     6   1     0.00   0.00   0.69    -0.25   0.24   0.00    -0.40  -0.22   0.00
     7   1     0.00   0.00  -0.69    -0.25  -0.24   0.00     0.40  -0.22   0.00
     8   1     0.00   0.00  -0.12     0.29  -0.12   0.00     0.21   0.24   0.00
     9   1     0.00   0.00   0.00    -0.47   0.00   0.00     0.00  -0.32   0.00
    10   1     0.00   0.00   0.12     0.29   0.12   0.00    -0.21   0.24   0.00
                    10                     11                     12
                     A                      A                      A
 Frequencies --  1065.6221              1121.6679              1131.9674
 Red. masses --     1.5276                 1.3097                 2.1312
 Frc consts  --     1.0220                 0.9709                 1.6090
 IR Inten    --    69.5357                34.2706                12.2049
  Atom  AN      X      Y      Z        X      Y      Z        X      Y      Z
     1   6    -0.06   0.00   0.00     0.00  -0.11   0.00     0.00  -0.04   0.00
     2   7     0.06   0.05   0.00     0.01   0.03   0.00    -0.03  -0.12   0.00
     3   6     0.01  -0.12   0.00     0.08  -0.02   0.00     0.00   0.18   0.00
     4   6     0.01   0.12   0.00    -0.08  -0.02   0.00     0.00   0.18   0.00
     5   7     0.06  -0.05   0.00    -0.01   0.03   0.00     0.03  -0.12   0.00
     6   1    -0.32  -0.41   0.00     0.52   0.36   0.00     0.18   0.36   0.00
     7   1    -0.32   0.41   0.00    -0.52   0.36   0.00    -0.18   0.36   0.00
     8   1     0.01   0.24   0.00    -0.07   0.27   0.00     0.11  -0.53   0.00
     9   1    -0.55   0.00   0.00     0.00  -0.12   0.00     0.00  -0.05   0.00
    10   1     0.01  -0.24   0.00     0.07   0.27   0.00    -0.11  -0.53   0.00
                    13                     14                     15
                     A                      A                      A
 Frequencies --  1186.7453              1222.6828              1344.7176
 Red. masses --     1.1671                 2.4503                 1.5458
 Frc consts  --     0.9685                 2.1583                 1.6469
 IR Inten    --     0.0645                22.3783                 0.0198
  Atom  AN      X      Y      Z        X      Y      Z        X      Y      Z
     1   6     0.05   0.00   0.00     0.00   0.18   0.00    -0.10   0.00   0.00
     2   7    -0.01   0.07   0.00     0.18   0.02   0.00    -0.01  -0.02   0.00
     3   6    -0.02   0.01   0.00     0.05  -0.10   0.00     0.08   0.11   0.00
     4   6    -0.02  -0.01   0.00    -0.05  -0.10   0.00     0.08  -0.11   0.00
     5   7    -0.01  -0.07   0.00    -0.18   0.02   0.00    -0.01   0.02   0.00
     6   1    -0.17  -0.12   0.00     0.26   0.07   0.00    -0.44  -0.34   0.00
     7   1    -0.17   0.12   0.00    -0.26   0.07   0.00    -0.44   0.34   0.00
     8   1    -0.12   0.39   0.00     0.37  -0.46   0.00     0.10  -0.35   0.00
     9   1     0.76   0.00   0.00     0.00   0.21   0.00     0.24   0.00   0.00
    10   1    -0.12  -0.39   0.00    -0.37  -0.46   0.00     0.10   0.35   0.00
                    16                     17                     18
                     A                      A                      A
 Frequencies --  1468.4433              1481.4021              1567.6621
 Red. masses --     2.1341                 3.7194                 3.7917
 Frc consts  --     2.7113                 4.8092                 5.4902
 IR Inten    --    19.2165                11.1025                20.2972
  Atom  AN      X      Y      Z        X      Y      Z        X      Y      Z
     1   6     0.03   0.00   0.00     0.00   0.21   0.00     0.41   0.00   0.00
     2   7    -0.04   0.17   0.00     0.03  -0.18   0.00    -0.17   0.04   0.00
     3   6     0.00  -0.12   0.00     0.24   0.07   0.00     0.06   0.06   0.00
     4   6     0.00   0.12   0.00    -0.24   0.07   0.00     0.06  -0.06   0.00
     5   7    -0.04  -0.17   0.00    -0.03  -0.18   0.00    -0.17  -0.04   0.00
     6   1     0.12  -0.03   0.00    -0.08  -0.25   0.00    -0.26  -0.21   0.00
     7   1     0.12   0.03   0.00     0.08  -0.25   0.00    -0.26   0.21   0.00
     8   1     0.22  -0.59   0.00    -0.19   0.50   0.00    -0.18   0.00   0.00
     9   1     0.29   0.00   0.00     0.00   0.25   0.00    -0.69   0.00   0.00
    10   1     0.22   0.59   0.00     0.19   0.50   0.00    -0.18   0.00   0.00
                    19                     20                     21
                     A                      A                      A
 Frequencies --  1636.1748              3323.2539              3334.5872
 Red. masses --     2.9330                 1.0942                 1.1029
 Frc consts  --     4.6262                 7.1201                 7.2257
 IR Inten    --    59.4013                17.0706                54.2384
  Atom  AN      X      Y      Z        X      Y      Z        X      Y      Z
     1   6     0.00  -0.13   0.00     0.00   0.00   0.00     0.00   0.09   0.00
     2   7    -0.09   0.12   0.00     0.00   0.00   0.00     0.00   0.00   0.00
     3   6     0.23   0.00   0.00     0.04  -0.05   0.00    -0.02   0.02   0.00
     4   6    -0.23   0.00   0.00     0.04   0.05   0.00     0.02   0.02   0.00
     5   7     0.09   0.12   0.00     0.00   0.00   0.00     0.00   0.00   0.00
     6   1    -0.12  -0.36   0.00    -0.46   0.53   0.00     0.16  -0.19   0.00
     7   1     0.12  -0.36   0.00    -0.46  -0.53   0.00    -0.16  -0.19   0.00
     8   1     0.11  -0.49   0.00     0.01   0.00   0.00     0.01   0.01   0.00
     9   1     0.00  -0.17   0.00     0.00   0.00   0.00     0.00  -0.93   0.00
    10   1    -0.11  -0.49   0.00     0.01   0.00   0.00    -0.01   0.01   0.00
                    22                     23                     24
                     A                      A                      A
 Frequencies --  3339.4585              3618.4938              3625.1154
 Red. masses --     1.1103                 1.0815                 1.0870
 Frc consts  --     7.2956                 8.3435                 8.4164
 IR Inten    --     1.2241               449.7227                34.3204
  Atom  AN      X      Y      Z        X      Y      Z        X      Y      Z
     1   6     0.00  -0.03   0.00     0.00   0.00   0.00     0.00   0.00   0.00
     2   7     0.00   0.00   0.00     0.05   0.02   0.00    -0.05  -0.02   0.00
     3   6    -0.05   0.05   0.00     0.00   0.00   0.00     0.00   0.00   0.00
     4   6     0.05   0.05   0.00     0.00   0.00   0.00     0.00   0.00   0.00
     5   7     0.00   0.00   0.00     0.05  -0.02   0.00     0.05  -0.02   0.00
     6   1     0.44  -0.49   0.00     0.00   0.01   0.00     0.00  -0.01   0.00
     7   1    -0.44  -0.49   0.00     0.00  -0.01   0.00     0.00  -0.01   0.00
     8   1    -0.02   0.00   0.00    -0.67  -0.23   0.00     0.67   0.23   0.00
     9   1     0.00   0.35   0.00     0.00   0.00   0.00     0.00   0.02   0.00
    10   1     0.02   0.00   0.00    -0.67   0.23   0.00    -0.67   0.23   0.00

 -------------------
 - Thermochemistry -
 -------------------
 Temperature   298.150 Kelvin.  Pressure   1.00000 Atm.
 Atom     1 has atomic number  6 and mass  12.00000
 Atom     2 has atomic number  7 and mass  14.00307
 Atom     3 has atomic number  6 and mass  12.00000
 Atom     4 has atomic number  6 and mass  12.00000
 Atom     5 has atomic number  7 and mass  14.00307
 Atom     6 has atomic number  1 and mass   1.00783
 Atom     7 has atomic number  1 and mass   1.00783
 Atom     8 has atomic number  1 and mass   1.00783
 Atom     9 has atomic number  1 and mass   1.00783
 Atom    10 has atomic number  1 and mass   1.00783
 Molecular mass:    69.04527 amu.
 Principal axes and moments of inertia in atomic units:
                           1         2         3
     Eigenvalues --   193.78924 199.08879 392.87803
           X            1.00000   0.00000   0.00000
           Y            0.00000   1.00000   0.00000
           Z            0.00000   0.00000   1.00000
 This molecule is an asymmetric top.
 Rotational symmetry number  1.
 Rotational temperatures (Kelvin)      0.44695     0.43505     0.22046
 Rotational constants (GHZ):           9.31291     9.06501     4.59364
 Zero-point vibrational energy     224120.9 (Joules/Mol)
                                   53.56618 (Kcal/Mol)
 Warning -- explicit consideration of   1 degrees of freedom as
           vibrations may cause significant error
 Vibrational temperatures:    890.28   899.69   982.97  1044.94  1074.32
          (Kelvin)           1239.18  1262.07  1325.12  1355.86  1533.19
                             1613.83  1628.65  1707.46  1759.17  1934.75
                             2112.76  2131.40  2255.51  2354.09  4781.42
                             4797.72  4804.73  5206.20  5215.73
 
 Zero-point correction=                           0.085363 (Hartree/Particle)
 Thermal correction to Energy=                    0.089160
 Thermal correction to Enthalpy=                  0.090104
 Thermal correction to Gibbs Free Energy=         0.059020
 Sum of electronic and zero-point Energies=           -226.600852
 Sum of electronic and thermal Energies=              -226.597056
 Sum of electronic and thermal Enthalpies=            -226.596111
 Sum of electronic and thermal Free Energies=         -226.627195
 
                     E (Thermal)             CV                S
                      KCal/Mol        Cal/Mol-Kelvin    Cal/Mol-Kelvin
 Total                   55.949             13.947             65.421
 Electronic               0.000              0.000              0.000
 Translational            0.889              2.981             38.614
 Rotational               0.889              2.981             24.231
 Vibrational             54.171              7.986              2.576
 Vibration     1          0.979              0.992              0.418
                       Q            Log10(Q)             Ln(Q)
 Total Bot       0.712255D-27        -27.147364        -62.509116
 Total V=0       0.130880D+13         12.116872         27.900129
 Vib (Bot)       0.716665D-39        -39.144684        -90.133966
 Vib (Bot)    1  0.236643D+00         -0.625907         -1.441204
 Vib (V=0)       0.131690D+01          0.119552          0.275280
 Vib (V=0)    1  0.105317D+01          0.022499          0.051807
 Electronic      0.100000D+01          0.000000          0.000000
 Translational   0.225505D+08          7.353156         16.931268
 Rotational      0.440721D+05          4.644164         10.693582
 
                                                              imidazole
                                                             IR Spectrum
 
     33       333                                                          1  1 11   1    1111 1                                     
     66       333                                                          6  5 44   3    2111 0   9988   77 666                     
     21       332                                                          3  6 86   4    2832 6   4276   42 821                     
     58       953                                                          6  8 18   5    3722 6   2171   76 359                     
 
     XX       XXX                                                          X  X XX        XXXX X   XX     XX   X                     
     XX        X                                                           X                 X X          XX   X                     
      X                                                                    X                   X          XX   X                     
      X                                                                                                   XX   X                     
      X                                                                                                   XX   X                     
      X                                                                                                    X                         
      X                                                                                                    X                         
      X                                                                                                    X                         
      X                                                                                                    X                         
      X                                                                                                    X                         
      X                                                                                                                              
      X                                                                                                                              
      X                                                                                                                              
      X                                                                                                                              
      X                                                                                                                              
      X                                                                                                                              
      X                                                                                                                              
      X                                                                                                                              
      X                                                                                                                              
      X                                                                                                                              
 
 -------------------------------------------------------------------
 Center     Atomic                   Forces (Hartrees/Bohr)
 Number     Number              X              Y              Z
 -------------------------------------------------------------------
      1        6           0.000000001    0.000007765   -0.000005170
      2        7           0.000000185   -0.000017768    0.000005889
      3        6          -0.000028042    0.000009279   -0.000005132
      4        6           0.000028041    0.000009275    0.000002213
      5        7          -0.000000185   -0.000017764    0.000001311
      6        1           0.000003046   -0.000002258   -0.000000533
      7        1          -0.000003050   -0.000002255    0.000000360
      8        1          -0.000004011    0.000004123    0.000001026
      9        1           0.000000003    0.000005477   -0.000000327
     10        1           0.000004013    0.000004127    0.000000361
 -------------------------------------------------------------------
 Cartesian Forces:  Max     0.000028042 RMS     0.000009412
 Force constants in Cartesian coordinates: 
                1             2             3             4             5 
      1  0.694432D+00
      2  0.000000D+00  0.974205D+00
      3 -0.301373D-05  0.631396D-05  0.134855D+00
      4 -0.301516D+00  0.132376D+00  0.517422D-05  0.101045D+01
      5  0.128779D+00 -0.227386D+00 -0.298133D-05  0.669254D-01  0.670685D+00
      6  0.513042D-05 -0.288518D-05 -0.667633D-01 -0.118956D-04 -0.248278D-05
      7  0.342850D-02 -0.140604D-02 -0.117293D-05 -0.144101D+00 -0.325006D-01
      8  0.559367D-01 -0.826753D-01  0.000000D+00 -0.476499D-01 -0.273776D+00
      9  0.000000D+00  0.000000D+00  0.150181D-01  0.112764D-05  0.389579D-05
     10  0.342873D-02  0.140641D-02  0.000000D+00 -0.488632D-01 -0.798631D-01
     11 -0.559364D-01 -0.826755D-01  0.000000D+00 -0.212798D-01 -0.186432D-01
     12  0.000000D+00  0.000000D+00  0.150181D-01  0.000000D+00  0.000000D+00
     13 -0.301515D+00 -0.132376D+00 -0.214622D-05 -0.120923D+00  0.233686D-01
     14 -0.128779D+00 -0.227387D+00 -0.175275D-05 -0.233691D-01 -0.914512D-02
     15 -0.300725D-05 -0.191721D-05 -0.667632D-01  0.111623D-05  0.000000D+00
     16 -0.214278D-02 -0.376842D-02  0.000000D+00  0.145418D-01 -0.143010D-01
     17 -0.453666D-02 -0.330450D-02  0.000000D+00  0.204765D-01 -0.180399D-01
     18  0.000000D+00  0.000000D+00  0.286499D-02  0.000000D+00  0.000000D+00
     19 -0.214281D-02  0.376843D-02  0.000000D+00 -0.522040D-02 -0.167614D-03
     20  0.453666D-02 -0.330447D-02  0.000000D+00  0.279601D-02  0.158352D-02
     21  0.000000D+00  0.000000D+00  0.286499D-02  0.000000D+00  0.000000D+00
     22 -0.161180D-01 -0.106857D-01  0.000000D+00 -0.412752D+00 -0.116909D+00
     23  0.197552D-01  0.160947D-01  0.000000D+00 -0.120532D+00 -0.115726D+00
     24  0.000000D+00  0.000000D+00 -0.467268D-02  0.439258D-05  0.162761D-05
     25 -0.617369D-01  0.000000D+00  0.000000D+00  0.758124D-02  0.288267D-01
     26  0.000000D+00 -0.379661D+00 -0.223356D-05 -0.203737D-02 -0.643785D-02
     27  0.000000D+00 -0.115206D-05 -0.277494D-01  0.000000D+00  0.000000D+00
     28 -0.161179D-01  0.106856D-01  0.000000D+00  0.798263D-03 -0.415886D-02
     29 -0.197553D-01  0.160951D-01  0.000000D+00 -0.770563D-02 -0.311485D-02
     30  0.000000D+00  0.000000D+00 -0.467265D-02  0.000000D+00  0.000000D+00
                6             7             8             9            10 
      6  0.106225D+00
      7  0.165531D-05  0.821078D+00
      8  0.334648D-05 -0.175956D+00  0.709259D+00
      9 -0.577925D-01  0.482390D-05 -0.564434D-05  0.120870D+00
     10  0.000000D+00 -0.423344D+00  0.267946D-02 -0.475297D-05  0.821077D+00
     11 -0.105923D-05 -0.268073D-02 -0.107209D+00  0.000000D+00  0.175956D+00
     12  0.117697D-01 -0.511950D-05  0.000000D+00 -0.668042D-01  0.659693D-05
     13  0.000000D+00 -0.488636D-01  0.212797D-01  0.000000D+00 -0.144101D+00
     14  0.119590D-05  0.798630D-01 -0.186427D-01  0.000000D+00  0.325013D-01
     15  0.140664D-01  0.000000D+00  0.000000D+00  0.117697D-01  0.000000D+00
     16  0.000000D+00 -0.203819D+00  0.163836D+00 -0.171798D-05 -0.370382D-02
     17  0.000000D+00  0.154560D+00 -0.232371D+00  0.236325D-05 -0.260286D-02
     18 -0.247587D-02  0.000000D+00  0.192295D-05 -0.264287D-01  0.000000D+00
     19  0.000000D+00 -0.370375D-02 -0.193663D-01  0.000000D+00 -0.203818D+00
     20  0.000000D+00  0.260280D-02  0.899067D-02  0.000000D+00 -0.154560D+00
     21  0.544461D-02  0.000000D+00  0.000000D+00  0.103088D-02 -0.158444D-05
     22  0.541205D-05  0.246126D-02 -0.115425D-02  0.000000D+00  0.218214D-02
     23  0.188879D-05 -0.288802D-01  0.200878D-02  0.000000D+00 -0.200722D-02
     24 -0.156884D-01  0.000000D+00  0.000000D+00 -0.422779D-02  0.000000D+00
     25  0.000000D+00 -0.531865D-02  0.861621D-03  0.000000D+00 -0.531864D-02
     26  0.000000D+00  0.239018D-02  0.195093D-02  0.000000D+00 -0.239021D-02
     27  0.864748D-03  0.000000D+00  0.000000D+00  0.341795D-02  0.000000D+00
     28  0.000000D+00  0.218213D-02 -0.467148D-03  0.000000D+00  0.246094D-02
     29  0.000000D+00  0.200726D-02 -0.753554D-02  0.000000D+00  0.288802D-01
     30  0.435012D-02  0.000000D+00  0.000000D+00  0.314690D-02  0.000000D+00
               11            12            13            14            15 
     11  0.709260D+00
     12  0.147193D-05  0.120870D+00
     13  0.476505D-01  0.000000D+00  0.101045D+01
     14 -0.273775D+00  0.000000D+00 -0.669240D-01  0.670685D+00
     15  0.000000D+00 -0.577925D-01  0.406049D-05  0.333347D-05  0.106224D+00
     16  0.193662D-01  0.000000D+00 -0.522038D-02  0.167585D-03  0.000000D+00
     17  0.899074D-02  0.000000D+00 -0.279604D-02  0.158351D-02  0.000000D+00
     18  0.000000D+00  0.103088D-02  0.000000D+00  0.000000D+00  0.544461D-02
     19 -0.163836D+00 -0.174297D-05  0.145419D-01  0.143011D-01  0.000000D+00
     20 -0.232372D+00 -0.100373D-05 -0.204763D-01 -0.180399D-01  0.000000D+00
     21  0.000000D+00 -0.264287D-01  0.000000D+00  0.000000D+00 -0.247586D-02
     22  0.467187D-03  0.000000D+00  0.798210D-03  0.415888D-02  0.000000D+00
     23 -0.753555D-02  0.000000D+00  0.770565D-02 -0.311480D-02  0.000000D+00
     24  0.000000D+00  0.314690D-02  0.000000D+00  0.000000D+00  0.435012D-02
     25 -0.861653D-03  0.000000D+00  0.758134D-02 -0.288266D-01  0.000000D+00
     26  0.195092D-02  0.000000D+00  0.203743D-02 -0.643796D-02  0.000000D+00
     27  0.000000D+00  0.341795D-02  0.000000D+00  0.000000D+00  0.864747D-03
     28  0.115436D-02  0.000000D+00 -0.412754D+00  0.116907D+00 -0.165936D-05
     29  0.200901D-02  0.000000D+00  0.120531D+00 -0.115725D+00  0.000000D+00
     30  0.000000D+00 -0.422782D-02 -0.156348D-05  0.000000D+00 -0.156884D-01
               16            17            18            19            20 
     16  0.198595D+00
     17 -0.166536D+00  0.241950D+00
     18  0.164217D-05 -0.232641D-05  0.212306D-01
     19  0.280580D-03  0.441945D-03  0.000000D+00  0.198594D+00
     20 -0.441944D-03 -0.189885D-03  0.000000D+00  0.166536D+00  0.241951D+00
     21  0.000000D+00  0.000000D+00 -0.299991D-02  0.143699D-05  0.122553D-05
     22  0.207044D-03 -0.833717D-04  0.000000D+00  0.378433D-03 -0.690929D-04
     23  0.788479D-03  0.633543D-03  0.000000D+00 -0.107875D-02  0.807956D-03
     24  0.000000D+00  0.000000D+00 -0.180402D-02  0.000000D+00  0.000000D+00
     25  0.883291D-03  0.100719D-02  0.000000D+00  0.883294D-03 -0.100718D-02
     26 -0.189604D-03 -0.603168D-04  0.000000D+00  0.189608D-03 -0.603202D-04
     27  0.000000D+00  0.000000D+00  0.167246D-02  0.000000D+00  0.000000D+00
     28  0.378428D-03  0.690912D-04  0.000000D+00  0.207053D-03  0.833665D-04
     29  0.107875D-02  0.807961D-03  0.000000D+00 -0.788476D-03  0.633538D-03
     30  0.000000D+00  0.000000D+00  0.146500D-02  0.000000D+00  0.000000D+00
               21            22            23            24            25 
     21  0.212306D-01
     22  0.000000D+00  0.422418D+00
     23  0.000000D+00  0.124346D+00  0.105583D+00
     24  0.146500D-02 -0.533257D-05 -0.194012D-05  0.178072D-01
     25  0.000000D+00  0.637917D-03 -0.466236D-03  0.000000D+00  0.541692D-01
     26  0.000000D+00  0.297323D-03  0.157501D-04  0.000000D+00  0.000000D+00
     27  0.167246D-02  0.000000D+00  0.000000D+00 -0.273943D-02  0.000000D+00
     28  0.000000D+00 -0.212905D-03  0.368701D-03  0.000000D+00  0.637919D-03
     29  0.000000D+00 -0.368708D-03  0.123268D-02  0.000000D+00  0.466245D-03
     30 -0.180402D-02  0.000000D+00  0.000000D+00  0.236309D-02  0.000000D+00
               26            27            28            29            30 
     26  0.388724D+00
     27  0.208588D-05  0.213179D-01
     28 -0.297321D-03  0.000000D+00  0.422420D+00
     29  0.157499D-04  0.000000D+00 -0.124345D+00  0.105582D+00
     30  0.000000D+00 -0.273943D-02  0.147129D-05  0.000000D+00  0.178072D-01
 Leave Link  716 at Wed Mar  2 10:07:00 2011, MaxMem=  399507456 cpu:       0.2
 (Enter /opt/gaussian/g09/l103.exe)

 GradGradGradGradGradGradGradGradGradGradGradGradGradGradGradGradGradGrad
 Berny optimization.
 Red2BG is reusing G-inverse.
 Internal  Forces:  Max     0.000023978 RMS     0.000004742
 Search for a local minimum.
 Step number   1 out of a maximum of    2
 All quantities printed in internal units (Hartrees-Bohrs-Radians)
 Second derivative matrix not updated -- analytic derivatives used.
 ITU=  0
     Eigenvalues ---    0.00889   0.00977   0.01220   0.01324   0.02379
     Eigenvalues ---    0.05482   0.05503   0.10066   0.10327   0.10940
     Eigenvalues ---    0.11598   0.11870   0.24442   0.24517   0.35972
     Eigenvalues ---    0.38722   0.38890   0.38894   0.41529   0.45327
     Eigenvalues ---    0.46567   0.46590   0.49110   0.59355
 Angle between quadratic step and forces=  45.22 degrees.
 Linear search not attempted -- first point.
 Iteration  1 RMS(Cart)=  0.00001953 RMS(Int)=  0.00000000
 Iteration  2 RMS(Cart)=  0.00000000 RMS(Int)=  0.00000000
 Variable       Old X    -DE/DX   Delta X   Delta X   Delta X     New X
                                 (Linear)    (Quad)   (Total)
    R1        2.52261   0.00000   0.00000   0.00001   0.00001   2.52261
    R2        2.52261   0.00000   0.00000   0.00001   0.00001   2.52261
    R3        2.03816   0.00001   0.00000   0.00001   0.00001   2.03817
    R4        2.61276  -0.00001   0.00000  -0.00002  -0.00002   2.61275
    R5        1.91730   0.00000   0.00000  -0.00001  -0.00001   1.91729
    R6        2.57810  -0.00002   0.00000  -0.00005  -0.00005   2.57805
    R7        2.03718   0.00000   0.00000   0.00001   0.00001   2.03719
    R8        2.61276  -0.00001   0.00000  -0.00002  -0.00002   2.61275
    R9        2.03718   0.00000   0.00000   0.00001   0.00001   2.03719
   R10        1.91730   0.00000   0.00000  -0.00001  -0.00001   1.91729
    A1        1.87096  -0.00001   0.00000  -0.00002  -0.00002   1.87093
    A2        2.20611   0.00000   0.00000   0.00001   0.00001   2.20613
    A3        2.20611   0.00000   0.00000   0.00001   0.00001   2.20613
    A4        1.91842   0.00000   0.00000   0.00000   0.00000   1.91842
    A5        2.17234  -0.00001   0.00000  -0.00005  -0.00005   2.17229
    A6        2.19243   0.00000   0.00000   0.00004   0.00004   2.19247
    A7        1.85849   0.00000   0.00000   0.00001   0.00001   1.85850
    A8        2.13165   0.00000   0.00000  -0.00001  -0.00001   2.13164
    A9        2.29305   0.00000   0.00000   0.00000   0.00000   2.29305
   A10        1.85849   0.00000   0.00000   0.00001   0.00001   1.85850
   A11        2.29305   0.00000   0.00000   0.00000   0.00000   2.29305
   A12        2.13165   0.00000   0.00000  -0.00001  -0.00001   2.13164
   A13        1.91842   0.00000   0.00000   0.00000   0.00000   1.91842
   A14        2.17234  -0.00001   0.00000  -0.00005  -0.00005   2.17229
   A15        2.19243   0.00000   0.00000   0.00004   0.00004   2.19247
    D1       -0.00005   0.00000   0.00000   0.00005   0.00005   0.00000
    D2        3.14157   0.00000   0.00000   0.00002   0.00002   3.14159
    D3        3.14157   0.00000   0.00000   0.00002   0.00002   3.14159
    D4        0.00001   0.00000   0.00000  -0.00001  -0.00001   0.00000
    D5        0.00003   0.00000   0.00000  -0.00003  -0.00003   0.00000
    D6       -3.14157   0.00000   0.00000  -0.00002  -0.00002   3.14159
    D7       -3.14159   0.00000   0.00000   0.00000   0.00000   3.14159
    D8       -0.00001   0.00000   0.00000   0.00001   0.00001   0.00000
    D9        0.00005   0.00000   0.00000  -0.00005  -0.00005   0.00000
   D10       -3.14157   0.00000   0.00000  -0.00003  -0.00003   3.14159
   D11       -3.14157   0.00000   0.00000  -0.00002  -0.00002   3.14159
   D12        0.00000   0.00000   0.00000   0.00000   0.00000   0.00000
   D13       -0.00003   0.00000   0.00000   0.00003   0.00003   0.00000
   D14        3.14157   0.00000   0.00000   0.00002   0.00002   3.14159
   D15        3.14159   0.00000   0.00000   0.00001   0.00001   3.14159
   D16        0.00001   0.00000   0.00000  -0.00001  -0.00001   0.00000
   D17        0.00000   0.00000   0.00000   0.00000   0.00000   0.00000
   D18       -3.14158   0.00000   0.00000  -0.00001  -0.00001  -3.14159
   D19        3.14159   0.00000   0.00000   0.00001   0.00001   3.14159
   D20        0.00000   0.00000   0.00000   0.00000   0.00000   0.00000
         Item               Value     Threshold  Converged?
 Maximum Force            0.000024     0.000450     YES
 RMS     Force            0.000005     0.000300     YES
 Maximum Displacement     0.000054     0.001800     YES
 RMS     Displacement     0.000020     0.001200     YES
 Predicted change in Energy=-1.672371D-09
 Optimization completed.
    -- Stationary point found.
                           ----------------------------
                           !   Optimized Parameters   !
                           ! (Angstroms and Degrees)  !
 --------------------------                            --------------------------
 ! Name  Definition              Value          Derivative Info.                !
 --------------------------------------------------------------------------------
 ! R1    R(1,2)                  1.3349         -DE/DX =    0.0                 !
 ! R2    R(1,5)                  1.3349         -DE/DX =    0.0                 !
 ! R3    R(1,9)                  1.0785         -DE/DX =    0.0                 !
 ! R4    R(2,3)                  1.3826         -DE/DX =    0.0                 !
 ! R5    R(2,8)                  1.0146         -DE/DX =    0.0                 !
 ! R6    R(3,4)                  1.3643         -DE/DX =    0.0                 !
 ! R7    R(3,6)                  1.078          -DE/DX =    0.0                 !
 ! R8    R(4,5)                  1.3826         -DE/DX =    0.0                 !
 ! R9    R(4,7)                  1.078          -DE/DX =    0.0                 !
 ! R10   R(5,10)                 1.0146         -DE/DX =    0.0                 !
 ! A1    A(2,1,5)              107.1979         -DE/DX =    0.0                 !
 ! A2    A(2,1,9)              126.401          -DE/DX =    0.0                 !
 ! A3    A(5,1,9)              126.401          -DE/DX =    0.0                 !
 ! A4    A(1,2,3)              109.9173         -DE/DX =    0.0                 !
 ! A5    A(1,2,8)              124.4657         -DE/DX =    0.0                 !
 ! A6    A(3,2,8)              125.617          -DE/DX =    0.0                 !
 ! A7    A(2,3,4)              106.4837         -DE/DX =    0.0                 !
 ! A8    A(2,3,6)              122.1345         -DE/DX =    0.0                 !
 ! A9    A(4,3,6)              131.3818         -DE/DX =    0.0                 !
 ! A10   A(3,4,5)              106.4837         -DE/DX =    0.0                 !
 ! A11   A(3,4,7)              131.3818         -DE/DX =    0.0                 !
 ! A12   A(5,4,7)              122.1345         -DE/DX =    0.0                 !
 ! A13   A(1,5,4)              109.9173         -DE/DX =    0.0                 !
 ! A14   A(1,5,10)             124.4657         -DE/DX =    0.0                 !
 ! A15   A(4,5,10)             125.617          -DE/DX =    0.0                 !
 ! D1    D(5,1,2,3)             -0.0028         -DE/DX =    0.0                 !
 ! D2    D(5,1,2,8)            179.9989         -DE/DX =    0.0                 !
 ! D3    D(9,1,2,3)            179.9987         -DE/DX =    0.0                 !
 ! D4    D(9,1,2,8)              0.0004         -DE/DX =    0.0                 !
 ! D5    D(2,1,5,4)              0.0016         -DE/DX =    0.0                 !
 ! D6    D(2,1,5,10)           180.0013         -DE/DX =    0.0                 !
 ! D7    D(9,1,5,4)            180.0            -DE/DX =    0.0                 !
 ! D8    D(9,1,5,10)            -0.0003         -DE/DX =    0.0                 !
 ! D9    D(1,2,3,4)              0.003          -DE/DX =    0.0                 !
 ! D10   D(1,2,3,6)            180.0015         -DE/DX =    0.0                 !
 ! D11   D(8,2,3,4)            180.0013         -DE/DX =    0.0                 !
 ! D12   D(8,2,3,6)             -0.0002         -DE/DX =    0.0                 !
 ! D13   D(2,3,4,5)             -0.0019         -DE/DX =    0.0                 !
 ! D14   D(2,3,4,7)            179.9988         -DE/DX =    0.0                 !
 ! D15   D(6,3,4,5)            179.9997         -DE/DX =    0.0                 !
 ! D16   D(6,3,4,7)              0.0004         -DE/DX =    0.0                 !
 ! D17   D(3,4,5,1)              0.0003         -DE/DX =    0.0                 !
 ! D18   D(3,4,5,10)          -179.9994         -DE/DX =    0.0                 !
 ! D19   D(7,4,5,1)            179.9996         -DE/DX =    0.0                 !
 ! D20   D(7,4,5,10)            -0.0001         -DE/DX =    0.0                 !
 --------------------------------------------------------------------------------
 GradGradGradGradGradGradGradGradGradGradGradGradGradGradGradGradGradGrad

 Leave Link  103 at Wed Mar  2 10:07:00 2011, MaxMem=  399507456 cpu:       0.0
 (Enter /opt/gaussian/g09/l9999.exe)
 1\1\GINC-EINSLING\Freq\RB3LYP\6-31+G(d)\C3H5N2(1+)\REN\02-Mar-2011\0\\
 #p freq=HPmodes b3lyp/6-31+g* nosymm scrf(solvent=water,cpcm) geom=che
 ckpoint\\imidazole\\1,1\C,-1.7629123637,2.8022670262,0.0000131393\N,-0
 .6884679212,2.0100918302,-0.0000155295\C,-1.0807726851,0.6843008972,0.
 0000141295\C,-2.44504332,0.6842980903,-0.0000057607\N,-2.837353555,2.0
 10087421,-0.0000021549\H,-0.3681145647,-0.1245651935,0.0000228935\H,-3
 .1576980769,-0.1245709603,-0.0000116435\H,0.2700731631,2.3426419657,-0
 .0000288391\H,-1.7629146324,3.8808153964,0.0000192918\H,-3.7958960441,
 2.3426335269,-0.0000055265\\Version=EM64L-G09RevB.01\HF=-226.6862154\R
 MSD=6.660e-09\RMSF=9.412e-06\ZeroPoint=0.0853631\Thermal=0.0891598\Dip
 ole=-0.0000016,0.7360684,-0.0000016\DipoleDeriv=0.7871419,0.0000022,-0
 .0000105,0.0000025,-0.1316602,0.000006,-0.0000048,-0.0000196,0.1643102
 ,-0.6956998,-0.0664452,0.0000034,-0.1364308,-0.0345834,0.,0.0000209,0.
 0000054,-0.2407444,0.1480524,-0.0799247,-0.0000013,0.2469726,0.0742846
 ,-0.0000106,-0.0000139,0.,-0.083576,0.1480532,0.0799251,0.0000057,-0.2
 469723,0.0742839,-0.000004,-0.000002,-0.0000003,-0.0835761,-0.6957007,
 0.0664422,0.0000034,0.1364274,-0.0345818,0.0000083,-0.0000025,0.000003
 1,-0.2407444,0.1309498,0.0038623,0.0000006,-0.0108451,0.1330286,0.0000
 017,0.0000051,-0.0000008,0.2336201,0.1309498,-0.0038624,-0.0000012,0.0
 10845,0.1330286,0.0000006,0.000001,0.000004,0.2336201,0.458004,0.03886
 ,-0.000002,0.0376492,0.2854199,-0.0000003,-0.0000048,-0.0000004,0.3944
 436,0.1302449,-0.0000003,0.0000013,-0.0000002,0.2153601,-0.0000005,0.0
 000012,0.0000102,0.2282033,0.4580045,-0.0388593,0.0000006,-0.0376484,0
 .2854198,-0.0000012,-0.0000002,-0.0000017,0.3944436\Polar=58.1141402,-
 0.0000054,60.7330759,0.0001055,0.0000651,30.8018593\PG=C01 [X(C3H5N2)]
 \NImag=0\\0.69443206,-0.00000058,0.97420466,-0.00000301,0.00000631,0.1
 3485503,-0.30151597,0.13237569,0.00000517,1.01045432,0.12877892,-0.227
 38646,-0.00000298,0.06692542,0.67068547,0.00000513,-0.00000289,-0.0667
 6325,-0.00001190,-0.00000248,0.10622455,0.00342850,-0.00140604,-0.0000
 0117,-0.14410079,-0.03250059,0.00000166,0.82107795,0.05593674,-0.08267
 526,0.00000043,-0.04764992,-0.27377570,0.00000335,-0.17595570,0.709258
 93,-0.00000043,-0.00000076,0.01501806,0.00000113,0.00000390,-0.0577925
 3,0.00000482,-0.00000564,0.12086979,0.00342873,0.00140641,0.00000062,-
 0.04886316,-0.07986310,0.00000019,-0.42334382,0.00267946,-0.00000475,0
 .82107669,-0.05593638,-0.08267548,-0.00000047,-0.02127979,-0.01864317,
 -0.00000106,-0.00268073,-0.10720889,0.00000060,0.17595603,0.70926024,-
 0.00000034,-0.00000054,0.01501807,0.00000083,0.00000072,0.01176966,-0.
 00000512,-0.00000061,-0.06680422,0.00000660,0.00000147,0.12086982,-0.3
 0151490,-0.13237602,-0.00000215,-0.12092293,0.02336860,0.00000004,-0.0
 4886355,0.02127967,0.00000055,-0.14410109,0.04765048,-0.00000045,1.010
 45493,-0.12877929,-0.22738740,-0.00000175,-0.02336907,-0.00914512,0.00
 000120,0.07986296,-0.01864275,-0.00000006,0.03250127,-0.27377534,-0.00
 000032,-0.06692399,0.67068490,-0.00000301,-0.00000192,-0.06676319,0.00
 000112,-0.00000013,0.01406637,-0.00000056,0.00000023,0.01176966,-0.000
 00013,-0.00000093,-0.05779252,0.00000406,0.00000333,0.10622448,-0.0021
 4278,-0.00376842,0.00000008,0.01454185,-0.01430098,0.,-0.20381928,0.16
 383579,-0.00000172,-0.00370382,0.01936621,0.00000018,-0.00522038,0.000
 16759,-0.00000013,0.19859507,-0.00453666,-0.00330450,0.00000025,0.0204
 7646,-0.01803986,-0.00000024,0.15456011,-0.23237118,0.00000236,-0.0026
 0286,0.00899074,-0.00000001,-0.00279604,0.00158351,0.,-0.16653587,0.24
 194999,0.00000046,-0.00000004,0.00286499,-0.00000059,0.00000043,-0.002
 47587,-0.00000093,0.00000192,-0.02642871,-0.00000048,0.00000051,0.0010
 3088,-0.00000009,-0.00000046,0.00544461,0.00000164,-0.00000233,0.02123
 057,-0.00214281,0.00376843,0.,-0.00522040,-0.00016761,-0.00000013,-0.0
 0370375,-0.01936627,0.00000025,-0.20381797,-0.16383571,-0.00000174,0.0
 1454189,0.01430109,0.00000015,0.00028058,0.00044195,0.00000004,0.19859
 367,0.00453666,-0.00330447,0.,0.00279601,0.00158352,0.00000002,0.00260
 280,0.00899067,-0.00000009,-0.15456002,-0.23237248,-0.00000100,-0.0204
 7634,-0.01803986,-0.00000010,-0.00044194,-0.00018989,0.,0.16653574,0.2
 4195133,0.00000005,0.00000005,0.00286499,-0.00000012,0.00000012,0.0054
 4461,0.00000009,-0.00000025,0.00103088,-0.00000158,-0.00000091,-0.0264
 2872,0.00000007,-0.00000013,-0.00247586,0.,-0.00000003,-0.00299991,0.0
 0000144,0.00000123,0.02123058,-0.01611799,-0.01068568,-0.00000029,-0.4
 1275242,-0.11690851,0.00000541,0.00246126,-0.00115425,-0.00000010,0.00
 218214,0.00046719,0.00000006,0.00079821,0.00415888,0.00000019,0.000207
 04,-0.00008337,-0.00000002,0.00037843,-0.00006909,0.00000005,0.4224183
 1,0.01975520,0.01609472,0.00000018,-0.12053180,-0.11572599,0.00000189,
 -0.02888025,0.00200878,-0.00000020,-0.00200722,-0.00753555,0.00000015,
 0.00770565,-0.00311480,-0.00000007,0.00078848,0.00063354,0.,-0.0010787
 5,0.00080796,-0.00000001,0.12434622,0.10558291,0.00000083,0.00000045,-
 0.00467268,0.00000439,0.00000163,-0.01568841,0.00000070,0.00000009,-0.
 00422779,-0.00000018,0.00000011,0.00314690,-0.00000034,-0.00000031,0.0
 0435012,0.,-0.00000003,-0.00180402,-0.00000002,-0.00000001,0.00146500,
 -0.00000533,-0.00000194,0.01780723,-0.06173692,0.00000065,0.00000051,0
 .00758124,0.02882671,-0.00000029,-0.00531865,0.00086162,0.00000024,-0.
 00531864,-0.00086165,-0.00000010,0.00758134,-0.02882663,-0.00000004,0.
 00088329,0.00100719,0.,0.00088329,-0.00100718,0.,0.00063792,-0.0004662
 4,-0.00000005,0.05416921,0.00000068,-0.37966087,-0.00000223,-0.0020373
 7,-0.00643785,0.00000020,0.00239018,0.00195093,-0.00000011,-0.00239021
 ,0.00195092,-0.00000003,0.00203743,-0.00643796,0.00000013,-0.00018960,
 -0.00006032,-0.00000003,0.00018961,-0.00006032,-0.00000005,0.00029732,
 0.00001575,0.00000002,-0.00000071,0.38872397,0.00000050,-0.00000115,-0
 .02774938,-0.00000018,-0.00000097,0.00086475,0.00000048,0.00000042,0.0
 0341795,-0.00000033,0.00000033,0.00341795,-0.00000013,-0.00000070,0.00
 086475,-0.00000003,0.,0.00167246,-0.00000002,-0.00000003,0.00167246,-0
 .00000003,0.,-0.00273943,-0.00000028,0.00000209,0.02131792,-0.01611792
 ,0.01068557,0.00000024,0.00079826,-0.00415886,-0.00000012,0.00218213,-
 0.00046715,0.,0.00246094,0.00115436,0.00000008,-0.41275351,0.11690719,
 -0.00000166,0.00037843,0.00006909,-0.00000003,0.00020705,0.00008337,0.
 00000001,-0.00021290,0.00036870,0.,0.00063792,-0.00029732,0.,0.4224196
 0,-0.01975529,0.01609506,0.00000026,-0.00770563,-0.00311485,0.00000002
 ,0.00200726,-0.00753554,0.,0.02888023,0.00200901,0.00000018,0.12053057
 ,-0.11572519,-0.00000053,0.00107875,0.00080796,0.,-0.00078848,0.000633
 54,0.,-0.00036871,0.00123268,-0.00000001,0.00046624,0.00001575,0.00000
 002,-0.12434495,0.10558157,-0.00000019,0.00000047,-0.00467265,0.000000
 14,-0.00000022,0.00435012,0.00000003,0.00000006,0.00314690,0.00000004,
 0.00000035,-0.00422782,-0.00000156,-0.00000081,-0.01568842,-0.00000002
 ,0.00000004,0.00146500,0.00000002,0.,-0.00180402,0.00000007,0.00000002
 ,0.00236309,0.,0.00000002,-0.00273943,0.00000147,0.00000006,0.01780724
 \\0.,-0.00000777,0.00000517,-0.00000018,0.00001777,-0.00000589,0.00002
 804,-0.00000928,0.00000513,-0.00002804,-0.00000927,-0.00000221,0.00000
 019,0.00001776,-0.00000131,-0.00000305,0.00000226,0.00000053,0.0000030
 5,0.00000226,-0.00000036,0.00000401,-0.00000412,-0.00000103,0.,-0.0000
 0548,0.00000033,-0.00000401,-0.00000413,-0.00000036\\\@


 FAULTILY FAULTLESS, ICILY REGULAR, SPLENDIDLY NULL...
           MAUDE BY TENNYSON
 Job cpu time:  0 days  0 hours  7 minutes  1.8 seconds.
 File lengths (MBytes):  RWF=     25 Int=      0 D2E=      0 Chk=      4 Scr=      1
 Normal termination of Gaussian 09 at Wed Mar  2 10:07:00 2011.
