 Entering Gaussian System, Link 0=g09
 Input=MgPh.com
 Output=MgPh.log
 Initial command:
 /export/home/haor/soft/gaussian/g09/l1.exe /work/haor/6292147_scratch/Gau-20733.inp -scrdir=/work/haor/6292147_scratch/
 Entering Link 1 = /export/home/haor/soft/gaussian/g09/l1.exe PID=     20734.
  
 Copyright (c) 1988,1990,1992,1993,1995,1998,2003,2009,2010,
            Gaussian, Inc.  All Rights Reserved.
  
 This is part of the Gaussian(R) 09 program.  It is based on
 the Gaussian(R) 03 system (copyright 2003, Gaussian, Inc.),
 the Gaussian(R) 98 system (copyright 1998, Gaussian, Inc.),
 the Gaussian(R) 94 system (copyright 1995, Gaussian, Inc.),
 the Gaussian 92(TM) system (copyright 1992, Gaussian, Inc.),
 the Gaussian 90(TM) system (copyright 1990, Gaussian, Inc.),
 the Gaussian 88(TM) system (copyright 1988, Gaussian, Inc.),
 the Gaussian 86(TM) system (copyright 1986, Carnegie Mellon
 University), and the Gaussian 82(TM) system (copyright 1983,
 Carnegie Mellon University). Gaussian is a federally registered
 trademark of Gaussian, Inc.
  
 This software contains proprietary and confidential information,
 including trade secrets, belonging to Gaussian, Inc.
  
 This software is provided under written license and may be
 used, copied, transmitted, or stored only in accord with that
 written license.
  
 The following legend is applicable only to US Government
 contracts under FAR:
  
                    RESTRICTED RIGHTS LEGEND
  
 Use, reproduction and disclosure by the US Government is
 subject to restrictions as set forth in subparagraphs (a)
 and (c) of the Commercial Computer Software - Restricted
 Rights clause in FAR 52.227-19.
  
 Gaussian, Inc.
 340 Quinnipiac St., Bldg. 40, Wallingford CT 06492
  
  
 ---------------------------------------------------------------
 Warning -- This program may not be used in any manner that
 competes with the business of Gaussian, Inc. or will provide
 assistance to any competitor of Gaussian, Inc.  The licensee
 of this program is prohibited from giving any competitor of
 Gaussian, Inc. access to this program.  By using this program,
 the user acknowledges that Gaussian, Inc. is engaged in the
 business of creating and licensing software in the field of
 computational chemistry and represents and warrants to the
 licensee that it is not a competitor of Gaussian, Inc. and that
 it will not use this program in any manner prohibited above.
 ---------------------------------------------------------------
  

 Cite this work as:
 Gaussian 09, Revision B.01,
 M. J. Frisch, G. W. Trucks, H. B. Schlegel, G. E. Scuseria, 
 M. A. Robb, J. R. Cheeseman, G. Scalmani, V. Barone, B. Mennucci, 
 G. A. Petersson, H. Nakatsuji, M. Caricato, X. Li, H. P. Hratchian, 
 A. F. Izmaylov, J. Bloino, G. Zheng, J. L. Sonnenberg, M. Hada, 
 M. Ehara, K. Toyota, R. Fukuda, J. Hasegawa, M. Ishida, T. Nakajima, 
 Y. Honda, O. Kitao, H. Nakai, T. Vreven, J. A. Montgomery, Jr., 
 J. E. Peralta, F. Ogliaro, M. Bearpark, J. J. Heyd, E. Brothers, 
 K. N. Kudin, V. N. Staroverov, T. Keith, R. Kobayashi, J. Normand, 
 K. Raghavachari, A. Rendell, J. C. Burant, S. S. Iyengar, J. Tomasi, 
 M. Cossi, N. Rega, J. M. Millam, M. Klene, J. E. Knox, J. B. Cross, 
 V. Bakken, C. Adamo, J. Jaramillo, R. Gomperts, R. E. Stratmann, 
 O. Yazyev, A. J. Austin, R. Cammi, C. Pomelli, J. W. Ochterski, 
 R. L. Martin, K. Morokuma, V. G. Zakrzewski, G. A. Voth, 
 P. Salvador, J. J. Dannenberg, S. Dapprich, A. D. Daniels, 
 O. Farkas, J. B. Foresman, J. V. Ortiz, J. Cioslowski, 
 and D. J. Fox, Gaussian, Inc., Wallingford CT, 2010.
 
 ******************************************
 Gaussian 09:  EM64L-G09RevB.01 12-Aug-2010
                 4-Jan-2013 
 ******************************************
 %chk=MgPh.chk
 %mem=7800MB
 %nprocshared=8
 Will use up to    8 processors via shared memory.
 ---------------------------------------------
 #p b3lyp/6-31g td(singlets,nstates=40,root=1)
 ---------------------------------------------
 1/38=1/1;
 2/12=2,17=6,18=5,40=1/2;
 3/5=1,6=6,11=2,16=1,25=1,30=1,74=-5/1,2,8,3;
 4//1;
 5/5=2,38=5/2;
 8/6=1,10=2,107=1,108=40/1;
 9/8=1,41=40,42=1,48=1/14;
 6/7=2,8=2,9=2,10=2/1;
 99/5=1,9=1/99;
 Leave Link    1 at Fri Jan  4 14:54:25 2013, MaxMem= 1022361600 cpu:       0.4
 (Enter /export/home/haor/soft/gaussian/g09/l101.exe)
 -----
 title
 -----
 Symbolic Z-matrix:
 Charge =  0 Multiplicity = 1
 Mg                    0.       0.        -0.00012 
 C                     0.46724  -3.42248  -0.00004 
 C                     3.4225    0.46724   0.00004 
 C                    -0.46724   3.42248  -0.00003 
 C                    -3.4225   -0.46724   0.00002 
 N                     1.64321  -1.24846  -0.00003 
 C                     1.62317  -2.63501  -0.00004 
 C                     2.98809  -3.13043   0.00003 
 C                     3.81677  -2.0396    0.00011 
 C                     2.97365  -0.85746   0.00003 
 N                     1.24847   1.6432   -0.00004 
 C                     2.63502   1.62317   0.00001 
 C                     3.13043   2.98809   0.00007 
 C                     2.0396    3.81677   0.00006 
 C                     0.85746   2.97364  -0.00001 
 N                    -1.64322   1.24846  -0.00003 
 C                    -1.62317   2.63501  -0.00003 
 C                    -2.98808   3.13043  -0.00001 
 C                    -3.81677   2.0396    0.00011 
 C                    -2.97366   0.85746   0.00003 
 N                    -1.24847  -1.6432   -0.00005 
 C                    -2.63502  -1.62317  -0.00003 
 C                    -3.13043  -2.98808  -0.00005 
 C                    -2.03959  -3.81677   0.00004 
 C                    -0.85746  -2.97364  -0.00003 
 H                     2.02811   4.89751   0.00008 
 H                     4.1747    3.26673   0.00011 
 H                     4.49844   0.61409   0.00007 
 H                     4.89752  -2.02812   0.00019 
 H                     3.26672  -4.1747    0.00006 
 H                     0.61408  -4.49843  -0.00002 
 H                    -2.02811  -4.89751   0.00007 
 H                    -4.1747   -3.26673  -0.00007 
 H                    -4.49844  -0.61409   0.00007 
 H                    -4.89752   2.02813   0.00019 
 H                    -3.26671   4.1747   0. 
 H                    -0.61409   4.49842  -0.00002 
 
 NAtoms=     37 NQM=     37 NQMF=      0 NMic=      0 NMicF=      0 NTot=     37.
                    Isotopes and Nuclear Properties:
 (Nuclear quadrupole moments (NQMom) in fm**2, nuclear magnetic moments (NMagM)
  in nuclear magnetons)

  Atom         1           2           3           4           5           6           7           8           9          10
 IAtWgt=          24          12          12          12          12          14          12          12          12          12
 AtmWgt=  23.9850450  12.0000000  12.0000000  12.0000000  12.0000000  14.0030740  12.0000000  12.0000000  12.0000000  12.0000000
 NucSpn=           0           0           0           0           0           2           0           0           0           0
 AtZEff=   0.0000000   0.0000000   0.0000000   0.0000000   0.0000000   0.0000000   0.0000000   0.0000000   0.0000000   0.0000000
 NQMom=    0.0000000   0.0000000   0.0000000   0.0000000   0.0000000   2.0440000   0.0000000   0.0000000   0.0000000   0.0000000
 NMagM=    0.0000000   0.0000000   0.0000000   0.0000000   0.0000000   0.4037610   0.0000000   0.0000000   0.0000000   0.0000000

  Atom        11          12          13          14          15          16          17          18          19          20
 IAtWgt=          14          12          12          12          12          14          12          12          12          12
 AtmWgt=  14.0030740  12.0000000  12.0000000  12.0000000  12.0000000  14.0030740  12.0000000  12.0000000  12.0000000  12.0000000
 NucSpn=           2           0           0           0           0           2           0           0           0           0
 AtZEff=   0.0000000   0.0000000   0.0000000   0.0000000   0.0000000   0.0000000   0.0000000   0.0000000   0.0000000   0.0000000
 NQMom=    2.0440000   0.0000000   0.0000000   0.0000000   0.0000000   2.0440000   0.0000000   0.0000000   0.0000000   0.0000000
 NMagM=    0.4037610   0.0000000   0.0000000   0.0000000   0.0000000   0.4037610   0.0000000   0.0000000   0.0000000   0.0000000

  Atom        21          22          23          24          25          26          27          28          29          30
 IAtWgt=          14          12          12          12          12           1           1           1           1           1
 AtmWgt=  14.0030740  12.0000000  12.0000000  12.0000000  12.0000000   1.0078250   1.0078250   1.0078250   1.0078250   1.0078250
 NucSpn=           2           0           0           0           0           1           1           1           1           1
 AtZEff=   0.0000000   0.0000000   0.0000000   0.0000000   0.0000000   0.0000000   0.0000000   0.0000000   0.0000000   0.0000000
 NQMom=    2.0440000   0.0000000   0.0000000   0.0000000   0.0000000   0.0000000   0.0000000   0.0000000   0.0000000   0.0000000
 NMagM=    0.4037610   0.0000000   0.0000000   0.0000000   0.0000000   2.7928460   2.7928460   2.7928460   2.7928460   2.7928460

  Atom        31          32          33          34          35          36          37
 IAtWgt=           1           1           1           1           1           1           1
 AtmWgt=   1.0078250   1.0078250   1.0078250   1.0078250   1.0078250   1.0078250   1.0078250
 NucSpn=           1           1           1           1           1           1           1
 AtZEff=   0.0000000   0.0000000   0.0000000   0.0000000   0.0000000   0.0000000   0.0000000
 NQMom=    0.0000000   0.0000000   0.0000000   0.0000000   0.0000000   0.0000000   0.0000000
 NMagM=    2.7928460   2.7928460   2.7928460   2.7928460   2.7928460   2.7928460   2.7928460
 Leave Link  101 at Fri Jan  4 14:54:25 2013, MaxMem= 1022361600 cpu:       1.1
 (Enter /export/home/haor/soft/gaussian/g09/l202.exe)
                          Input orientation:                          
 ---------------------------------------------------------------------
 Center     Atomic      Atomic             Coordinates (Angstroms)
 Number     Number       Type             X           Y           Z
 ---------------------------------------------------------------------
      1         12           0        0.000001   -0.000001   -0.000116
      2          6           0        0.467244   -3.422481   -0.000041
      3          6           0        3.422495    0.467243    0.000044
      4          6           0       -0.467241    3.422479   -0.000031
      5          6           0       -3.422498   -0.467242    0.000018
      6          7           0        1.643213   -1.248461   -0.000034
      7          6           0        1.623173   -2.635013   -0.000038
      8          6           0        2.988086   -3.130429    0.000034
      9          6           0        3.816773   -2.039600    0.000105
     10          6           0        2.973647   -0.857458    0.000034
     11          7           0        1.248473    1.643203   -0.000037
     12          6           0        2.635021    1.623171    0.000011
     13          6           0        3.130432    2.988087    0.000070
     14          6           0        2.039599    3.816769    0.000061
     15          6           0        0.857460    2.973637   -0.000013
     16          7           0       -1.643217    1.248458   -0.000029
     17          6           0       -1.623171    2.635005   -0.000029
     18          6           0       -2.988081    3.130430   -0.000006
     19          6           0       -3.816774    2.039603    0.000105
     20          6           0       -2.973655    0.857459    0.000025
     21          7           0       -1.248470   -1.643201   -0.000045
     22          6           0       -2.635024   -1.623171   -0.000027
     23          6           0       -3.130431   -2.988083   -0.000050
     24          6           0       -2.039595   -3.816767    0.000038
     25          6           0       -0.857460   -2.973637   -0.000030
     26          1           0        2.028113    4.897510    0.000084
     27          1           0        4.174703    3.266726    0.000111
     28          1           0        4.498438    0.614085    0.000071
     29          1           0        4.897515   -2.028119    0.000185
     30          1           0        3.266721   -4.174701    0.000062
     31          1           0        0.614082   -4.498425   -0.000024
     32          1           0       -2.028112   -4.897508    0.000072
     33          1           0       -4.174700   -3.266727   -0.000072
     34          1           0       -4.498442   -0.614085    0.000068
     35          1           0       -4.897516    2.028130    0.000188
     36          1           0       -3.266713    4.174703   -0.000002
     37          1           0       -0.614086    4.498421   -0.000024
 ---------------------------------------------------------------------
                    Distance matrix (angstroms):
                    1          2          3          4          5
     1  Mg   0.000000
     2  C    3.454227   0.000000
     3  C    3.454241   4.885024   0.000000
     4  C    3.454227   6.908454   4.885025   0.000000
     5  C    3.454246   4.885031   6.908487   4.885025   0.000000
     6  N    2.063686   2.471693   2.471737   5.125592   5.125596
     7  C    3.094830   1.398670   3.586301   6.408045   5.491632
     8  C    4.327613   2.537703   3.623804   7.408096   6.941769
     9  C    4.327553   3.623769   2.537660   6.941692   7.408060
    10  C    3.094803   3.586279   1.398677   5.491591   6.408037
    11  N    2.063686   5.125571   2.471690   2.471740   5.125617
    12  C    3.094837   5.491617   1.398673   3.586299   6.408070
    13  C    4.327617   6.941754   2.537707   3.623803   7.408117
    14  C    4.327550   7.408039   3.623772   2.537659   6.941704
    15  C    3.094795   6.408010   3.586282   1.398675   5.491602
    16  N    2.063690   5.125594   5.125596   2.471697   2.471734
    17  C    3.094825   6.408040   5.491624   1.398674   3.586295
    18  C    4.327613   7.408098   6.941761   2.537701   3.623805
    19  C    4.327558   6.941698   7.408059   3.623771   2.537661
    20  C    3.094813   5.491600   6.408042   3.586285   1.398675
    21  N    2.063683   2.471743   5.125611   5.125567   2.471695
    22  C    3.094840   3.586305   6.408070   5.491618   1.398673
    23  C    4.327613   3.623806   7.408112   6.941750   2.537704
    24  C    4.327546   2.537657   6.941698   7.408035   3.623774
    25  C    3.094794   1.398679   5.491600   6.408008   3.586284
    26  H    5.300835   8.465138   4.644520   2.898708   7.647857
    27  H    5.300910   7.647924   2.898779   4.644556   8.465222
    28  H    4.540158   5.704769   1.085917   5.704826   7.994404
    29  H    5.300840   4.644518   2.898709   7.647851   8.465161
    30  H    5.300904   2.898777   4.644557   8.465200   7.647935
    31  H    4.540145   1.085918   5.704826   7.994372   5.704771
    32  H    5.300832   2.898708   7.647854   8.465134   4.644520
    33  H    5.300908   4.644556   8.465217   7.647923   2.898780
    34  H    4.540164   5.704834   7.994405   5.704773   1.085918
    35  H    5.300848   7.647863   8.465161   4.644518   2.898717
    36  H    5.300903   8.465202   7.647925   2.898773   4.644558
    37  H    4.540144   7.994371   5.704768   1.085916   5.704821
                    6          7          8          9         10
     6  N    0.000000
     7  C    1.386697   0.000000
     8  C    2.313112   1.452041   0.000000
     9  C    2.313064   2.272971   1.369901   0.000000
    10  C    1.386700   2.232371   2.273017   1.452006   0.000000
    11  N    2.918483   4.294593   5.080730   4.489900   3.038014
    12  C    3.038084   4.376753   4.766694   3.848692   2.503635
    13  C    4.490007   5.821605   6.120172   5.074318   3.848740
    14  C    5.080716   6.465207   7.011647   6.120082   4.766639
    15  C    4.294592   5.660678   6.465229   5.821519   4.376704
    16  N    4.127375   5.074510   6.373666   6.373603   5.074477
    17  C    5.074502   6.189656   7.382677   7.172512   5.773044
    18  C    6.373662   7.382682   8.655225   8.546066   7.172548
    19  C    6.373604   7.172521   8.546072   8.655110   7.382600
    20  C    5.074482   5.773057   7.172559   7.382605   6.189616
    21  N    2.918501   3.038096   4.490017   5.080730   4.294609
    22  C    4.294615   4.376764   5.821614   6.465222   5.660698
    23  C    5.080744   4.766698   6.120173   7.011652   6.465240
    24  C    4.489908   3.848690   5.074311   6.120079   5.821521
    25  C    3.038025   2.503639   3.848741   4.766642   4.376710
    26  H    6.158012   7.543400   8.085132   7.163993   5.832126
    27  H    5.176423   6.429683   6.506278   5.318384   4.295513
    28  H    3.409016   4.338639   4.037641   2.739838   2.119063
    29  H    3.346393   3.330110   2.204769   1.080803   2.252047
    30  H    3.346440   2.252086   1.080806   2.204816   3.330164
    31  H    3.409014   2.119096   2.739947   4.037704   4.338685
    32  H    5.176309   4.295435   5.318347   6.506175   6.429588
    33  H    6.158044   5.832186   7.164083   8.085140   7.543437
    34  H    6.174331   6.446574   7.898107   8.436521   7.476051
    35  H    7.315544   8.016501   9.423028   9.616926   8.383426
    36  H    7.315605   8.383509   9.617040   9.423022   8.016529
    37  H    6.174306   7.476042   8.436527   7.897989   6.446493
                   11         12         13         14         15
    11  N    0.000000
    12  C    1.386693   0.000000
    13  C    2.313111   1.452043   0.000000
    14  C    2.313065   2.272972   1.369902   0.000000
    15  C    1.386703   2.232371   2.273018   1.452007   0.000000
    16  N    2.918509   4.294616   5.080751   4.489917   3.038030
    17  C    3.038093   4.376758   4.766698   3.848695   2.503638
    18  C    4.490015   5.821607   6.120169   5.074311   3.848736
    19  C    5.080734   6.465220   7.011654   6.120084   4.766643
    20  C    4.294620   5.660703   6.465250   5.821532   4.376717
    21  N    4.127369   5.074514   6.373665   6.373592   5.074459
    22  C    5.074519   6.189678   7.382695   7.172520   5.773048
    23  C    6.373665   7.382689   8.655230   8.546065   7.172543
    24  C    6.373591   7.172514   8.546064   8.655097   7.382582
    25  C    5.074462   5.773047   7.172547   7.382585   6.189590
    26  H    3.346394   3.330110   2.204768   1.080802   2.252047
    27  H    3.346438   2.252087   1.080806   2.204817   3.330166
    28  H    3.409011   2.119098   2.739950   4.037707   4.338687
    29  H    5.176303   4.295439   5.318355   6.506182   6.429588
    30  H    6.158030   5.832184   7.164084   8.085136   7.543426
    31  H    6.174305   6.446560   7.898093   8.436501   7.476025
    32  H    7.315525   8.016487   9.423014   9.616907   8.383403
    33  H    7.315615   8.383520   9.617050   9.423026   8.016531
    34  H    6.174332   7.476069   8.436549   7.898003   6.446506
    35  H    6.158031   7.543415   8.085139   7.163993   5.832129
    36  H    5.176427   6.429680   6.506268   5.318370   4.295505
    37  H    3.409017   4.338636   4.037638   2.739835   2.119060
                   16         17         18         19         20
    16  N    0.000000
    17  C    1.386692   0.000000
    18  C    2.313110   1.452042   0.000000
    19  C    2.313063   2.272971   1.369904   0.000000
    20  C    1.386703   2.232370   2.273017   1.452003   0.000000
    21  N    2.918479   4.294583   5.080728   4.489903   3.038020
    22  C    3.038081   4.376746   4.766694   3.848694   2.503637
    23  C    4.489998   5.821594   6.120169   5.074317   3.848736
    24  C    5.080711   6.465197   7.011645   6.120085   4.766640
    25  C    4.294590   5.660669   6.465229   5.821522   4.376709
    26  H    5.176316   4.295440   5.318343   6.506177   6.429595
    27  H    6.158052   5.832188   7.164081   8.085143   7.543447
    28  H    6.174330   6.446566   7.898098   8.436519   7.476055
    29  H    7.315540   8.016487   9.423017   9.616922   8.383429
    30  H    7.315610   8.383504   9.617041   9.423029   8.016541
    31  H    6.174307   7.476037   8.436528   7.897993   6.446499
    32  H    6.158006   7.543390   8.085130   7.163995   5.832126
    33  H    5.176418   6.429677   6.506280   5.318388   4.295512
    34  H    3.409014   4.338637   4.037646   2.739841   2.119060
    35  H    3.346394   3.330110   2.204769   1.080803   2.252046
    36  H    3.346438   2.252088   1.080806   2.204817   3.330164
    37  H    3.409013   2.119097   2.739936   4.037697   4.338683
                   21         22         23         24         25
    21  N    0.000000
    22  C    1.386699   0.000000
    23  C    2.313111   1.452037   0.000000
    24  C    2.313065   2.272971   1.369905   0.000000
    25  C    1.386704   2.232374   2.273017   1.452003   0.000000
    26  H    7.315524   8.016491   9.423012   9.616906   8.383405
    27  H    7.315613   8.383524   9.617048   9.423024   8.016533
    28  H    6.174325   7.476068   8.436543   7.897995   6.446502
    29  H    6.158027   7.543416   8.085137   7.163990   5.832130
    30  H    5.176431   6.429689   6.506275   5.318374   4.295512
    31  H    3.409018   4.338638   4.037637   2.739828   2.119060
    32  H    3.346394   3.330109   2.204770   1.080802   2.252045
    33  H    3.346440   2.252083   1.080805   2.204817   3.330163
    34  H    3.409017   2.119099   2.739949   4.037710   4.338691
    35  H    5.176312   4.295447   5.318363   6.506192   6.429598
    36  H    6.158028   5.832184   7.164082   8.085135   7.543425
    37  H    6.174299   6.446556   7.898084   8.436494   7.476020
                   26         27         28         29         30
    26  H    0.000000
    27  H    2.695794   0.000000
    28  H    4.944718   2.672323   0.000000
    29  H    7.496520   5.343954   2.672172   0.000000
    30  H    9.156373   7.496617   4.944653   2.695794   0.000000
    31  H    9.501741   8.542575   6.420746   4.944715   2.672319
    32  H   10.601667  10.253274   8.542454   7.496513   5.343941
    33  H   10.253275  10.601818   9.501791   9.156377   7.496610
    34  H    8.542459   9.501797   9.080322   9.501763   8.542584
    35  H    7.496511   9.156379   9.501762  10.601688  10.253286
    36  H    5.343934   7.496606   8.542574  10.253274  10.601807
    37  H    2.672169   4.944651   6.420745   8.542451   9.501774
                   31         32         33         34         35
    31  H    0.000000
    32  H    2.672163   0.000000
    33  H    4.944645   2.695791   0.000000
    34  H    6.420748   4.944719   2.672325   0.000000
    35  H    8.542461   7.496529   5.343966   2.672183   0.000000
    36  H    9.501775   9.156372   7.496621   4.944658   2.695792
    37  H    9.080288   9.501734   8.542570   6.420743   4.944705
                   36         37
    36  H    0.000000
    37  H    2.672307   0.000000
 Stoichiometry    C20H12MgN4
 Framework group  C1[X(C20H12MgN4)]
 Deg. of freedom   105
 Full point group                 C1      NOp   1
 Largest Abelian subgroup         C1      NOp   1
 Largest concise Abelian subgroup C1      NOp   1
                         Standard orientation:                         
 ---------------------------------------------------------------------
 Center     Atomic      Atomic             Coordinates (Angstroms)
 Number     Number       Type             X           Y           Z
 ---------------------------------------------------------------------
      1         12           0        0.000000   -0.000001   -0.000116
      2          6           0        0.444852   -3.425464   -0.000041
      3          6           0        3.425477    0.444851    0.000044
      4          6           0       -0.444849    3.425461   -0.000031
      5          6           0       -3.425481   -0.444850    0.000018
      6          7           0        1.635013   -1.259181   -0.000034
      7          6           0        1.605906   -2.645572   -0.000038
      8          6           0        2.967550   -3.149904    0.000034
      9          6           0        3.803353   -2.064517    0.000105
     10          6           0        2.967976   -0.876887    0.000034
     11          7           0        1.259192    1.635003   -0.000037
     12          6           0        2.645580    1.605904    0.000011
     13          6           0        3.149906    2.967551    0.000070
     14          6           0        2.064516    3.803349    0.000061
     15          6           0        0.876889    2.967966   -0.000013
     16          7           0       -1.635017    1.259178   -0.000029
     17          6           0       -1.605904    2.645564   -0.000029
     18          6           0       -2.967545    3.149904   -0.000006
     19          6           0       -3.803354    2.064520    0.000105
     20          6           0       -2.967984    0.876888    0.000025
     21          7           0       -1.259190   -1.635001   -0.000045
     22          6           0       -2.645583   -1.605904   -0.000027
     23          6           0       -3.149906   -2.967547   -0.000050
     24          6           0       -2.064512   -3.803347    0.000038
     25          6           0       -0.876889   -2.967966   -0.000030
     26          1           0        2.060098    4.884142    0.000084
     27          1           0        4.195977    3.239354    0.000111
     28          1           0        4.502358    0.584653    0.000071
     29          1           0        4.884147   -2.060104    0.000185
     30          1           0        3.239349   -4.195975    0.000062
     31          1           0        0.584650   -4.502345   -0.000024
     32          1           0       -2.060097   -4.884140    0.000072
     33          1           0       -4.195974   -3.239356   -0.000072
     34          1           0       -4.502362   -0.584653    0.000068
     35          1           0       -4.884148    2.060115    0.000188
     36          1           0       -3.239342    4.195977   -0.000002
     37          1           0       -0.584654    4.502341   -0.000024
 ---------------------------------------------------------------------
 Rotational constants (GHZ):      0.2633367      0.2633354      0.1316680
 Leave Link  202 at Fri Jan  4 14:54:25 2013, MaxMem= 1022361600 cpu:       0.0
 (Enter /export/home/haor/soft/gaussian/g09/l301.exe)
 Standard basis: 6-31G (6D, 7F)
 Ernie: Thresh=  0.10000D-02 Tol=  0.10000D-05 Strict=F.
 There are   253 symmetry adapted basis functions of A   symmetry.
 Integral buffers will be    131072 words long.
 Raffenetti 2 integral format.
 Two-electron integral symmetry is turned on.
   253 basis functions,   622 primitive gaussians,   253 cartesian basis functions
    86 alpha electrons       86 beta electrons
       nuclear repulsion energy      2104.9434040154 Hartrees.
 IExCor=  402 DFT=T Ex+Corr=B3LYP ExCW=0 ScaHFX=  0.200000
 ScaDFX=  0.800000  0.720000  1.000000  0.810000 ScalE2=  1.000000  1.000000
 IRadAn=      0 IRanWt=     -1 IRanGd=            0 ICorTp=0
 NAtoms=   37 NActive=   37 NUniq=   37 SFac= 1.00D+00 NAtFMM=   50 NAOKFM=F Big=F
 Leave Link  301 at Fri Jan  4 14:54:25 2013, MaxMem= 1022361600 cpu:       0.6
 (Enter /export/home/haor/soft/gaussian/g09/l302.exe)
 NPDir=0 NMtPBC=     1 NCelOv=     1 NCel=       1 NClECP=     1 NCelD=      1
         NCelK=      1 NCelE2=     1 NClLst=     1 CellRange=     0.0.
 One-electron integrals computed using PRISM.
 NBasis=   253 RedAO= T  NBF=   253
 NBsUse=   253 1.00D-06 NBFU=   253
 Precomputing XC quadrature grid using
 IXCGrd= 2 IRadAn=           0 IRanWt=          -1 IRanGd=           0 AccXCQ= 0.00D+00.
 NRdTot=    2373 NPtTot=      301696 NUsed=      318801 NTot=      318833
 NSgBfM=   252   252   252   252   252 NAtAll=    37    37.
 Leave Link  302 at Fri Jan  4 14:54:26 2013, MaxMem= 1022361600 cpu:       5.2
 (Enter /export/home/haor/soft/gaussian/g09/l308.exe)
 Leave Link  308 at Fri Jan  4 14:54:26 2013, MaxMem= 1022361600 cpu:       0.9
 (Enter /export/home/haor/soft/gaussian/g09/l303.exe)
 DipDrv:  MaxL=1.
 Leave Link  303 at Fri Jan  4 14:54:26 2013, MaxMem= 1022361600 cpu:       0.8
 (Enter /export/home/haor/soft/gaussian/g09/l401.exe)
 Harris functional with IExCor=  402 diagonalized for initial guess.
 ExpMin= 4.21D-02 ExpMax= 1.17D+04 ExpMxC= 1.76D+03 IAcc=2 IRadAn=         0 AccDes= 0.00D+00
 HarFok:  IExCor=  402 AccDes= 0.00D+00 IRadAn=         0 IDoV= 1
 ScaDFX=  1.000000  1.000000  1.000000  1.000000
 FoFCou: FMM=F IPFlag=           0 FMFlag=      100000 FMFlg1=           0
         NFxFlg=           0 DoJE=T BraDBF=F KetDBF=T FulRan=T
         Omega=  0.000000  0.000000  1.000000  0.000000  0.000000 ICntrl=     500 IOpCl=  0
         NMat0=    1 NMatS0=    1 NMatT0=    0 NMatD0=    1 NMtDS0=    0 NMtDT0=    0
         I1Cent=           4 NGrid=           0.
 Petite list used in FoFCou.
 Harris En= -1188.16511793819    
 Initial guess orbital symmetries:
       Occupied  (A) (A) (A) (A) (A) (A) (A) (A) (A) (A) (A) (A)
                 (A) (A) (A) (A) (A) (A) (A) (A) (A) (A) (A) (A)
                 (A) (A) (A) (A) (A) (A) (A) (A) (A) (A) (A) (A)
                 (A) (A) (A) (A) (A) (A) (A) (A) (A) (A) (A) (A)
                 (A) (A) (A) (A) (A) (A) (A) (A) (A) (A) (A) (A)
                 (A) (A) (A) (A) (A) (A) (A) (A) (A) (A) (A) (A)
                 (A) (A) (A) (A) (A) (A) (A) (A) (A) (A) (A) (A)
                 (A) (A)
       Virtual   (A) (A) (A) (A) (A) (A) (A) (A) (A) (A) (A) (A)
                 (A) (A) (A) (A) (A) (A) (A) (A) (A) (A) (A) (A)
                 (A) (A) (A) (A) (A) (A) (A) (A) (A) (A) (A) (A)
                 (A) (A) (A) (A) (A) (A) (A) (A) (A) (A) (A) (A)
                 (A) (A) (A) (A) (A) (A) (A) (A) (A) (A) (A) (A)
                 (A) (A) (A) (A) (A) (A) (A) (A) (A) (A) (A) (A)
                 (A) (A) (A) (A) (A) (A) (A) (A) (A) (A) (A) (A)
                 (A) (A) (A) (A) (A) (A) (A) (A) (A) (A) (A) (A)
                 (A) (A) (A) (A) (A) (A) (A) (A) (A) (A) (A) (A)
                 (A) (A) (A) (A) (A) (A) (A) (A) (A) (A) (A) (A)
                 (A) (A) (A) (A) (A) (A) (A) (A) (A) (A) (A) (A)
                 (A) (A) (A) (A) (A) (A) (A) (A) (A) (A) (A) (A)
                 (A) (A) (A) (A) (A) (A) (A) (A) (A) (A) (A) (A)
                 (A) (A) (A) (A) (A) (A) (A) (A) (A) (A) (A)
 The electronic state of the initial guess is 1-A.
 Leave Link  401 at Fri Jan  4 14:54:28 2013, MaxMem= 1022361600 cpu:      18.9
 (Enter /export/home/haor/soft/gaussian/g09/l502.exe)
 Closed shell SCF:
 Requested convergence on RMS density matrix=1.00D-08 within 128 cycles.
 Requested convergence on MAX density matrix=1.00D-06.
 Requested convergence on             energy=1.00D-06.
 No special actions if energy rises.
 Using DIIS extrapolation, IDIIS=  1040.
 Integral symmetry usage will be decided dynamically.
       318455 words used for storage of precomputed grid.
 Keep R1 ints in memory in canonical form, NReq=524942662.
 IEnd=      532597 IEndB=      532597 NGot=  1022361600 MDV=   505693232
 LenX=   505693232 LenY=   505628782
 Symmetry not used in FoFDir.
 MinBra= 0 MaxBra= 1 Meth= 1.
 IRaf=       0 NMat=   1 IRICut=       1 DoRegI=T DoRafI=F ISym2E= 0 JSym2E=0.

 Cycle   1  Pass 1  IDiag  1:
 E= -1187.97546969352    
 DIIS: error= 4.24D-02 at cycle   1 NSaved=   1.
 NSaved= 1 IEnMin= 1 EnMin= -1187.97546969352     IErMin= 1 ErrMin= 4.24D-02
 ErrMax= 4.24D-02 EMaxC= 1.00D-01 BMatC= 3.15D-01 BMatP= 3.15D-01
 IDIUse=3 WtCom= 5.76D-01 WtEn= 4.24D-01
 Coeff-Com:  0.100D+01
 Coeff-En:   0.100D+01
 Coeff:      0.100D+01
 Gap=     0.131 Goal=   None    Shift=    0.000
 GapD=    0.131 DampG=1.000 DampE=0.500 DampFc=0.5000 IDamp=-1.
 Damping current iteration by 5.00D-01
 RMSDP=5.06D-03 MaxDP=9.99D-02              OVMax= 1.31D-01

 Cycle   2  Pass 1  IDiag  1:
 E= -1188.15162520282     Delta-E=       -0.176155509297 Rises=F Damp=T
 DIIS: error= 8.75D-03 at cycle   2 NSaved=   2.
 NSaved= 2 IEnMin= 2 EnMin= -1188.15162520282     IErMin= 2 ErrMin= 8.75D-03
 ErrMax= 8.75D-03 EMaxC= 1.00D-01 BMatC= 1.48D-02 BMatP= 3.15D-01
 IDIUse=3 WtCom= 9.12D-01 WtEn= 8.75D-02
 Coeff-Com: -0.126D-01 0.101D+01
 Coeff-En:   0.000D+00 0.100D+01
 Coeff:     -0.115D-01 0.101D+01
 Gap=     0.112 Goal=   None    Shift=    0.000
 RMSDP=1.72D-03 MaxDP=3.11D-02 DE=-1.76D-01 OVMax= 7.31D-02

 Cycle   3  Pass 1  IDiag  1:
 E= -1188.31410968850     Delta-E=       -0.162484485682 Rises=F Damp=F
 DIIS: error= 1.60D-02 at cycle   3 NSaved=   3.
 NSaved= 3 IEnMin= 3 EnMin= -1188.31410968850     IErMin= 2 ErrMin= 8.75D-03
 ErrMax= 1.60D-02 EMaxC= 1.00D-01 BMatC= 1.93D-02 BMatP= 1.48D-02
 IDIUse=2 WtCom= 0.00D+00 WtEn= 1.00D+00
 Coeff-En:   0.000D+00 0.000D+00 0.100D+01
 Coeff:      0.000D+00 0.000D+00 0.100D+01
 Gap=     0.118 Goal=   None    Shift=    0.000
 RMSDP=1.96D-03 MaxDP=5.57D-02 DE=-1.62D-01 OVMax= 1.17D-01

 Cycle   4  Pass 1  IDiag  1:
 E= -1188.25238727829     Delta-E=        0.061722410211 Rises=F Damp=F
 DIIS: error= 3.42D-02 at cycle   4 NSaved=   4.
 NSaved= 4 IEnMin= 3 EnMin= -1188.31410968850     IErMin= 2 ErrMin= 8.75D-03
 ErrMax= 3.42D-02 EMaxC= 1.00D-01 BMatC= 8.49D-02 BMatP= 1.48D-02
 IDIUse=2 WtCom= 0.00D+00 WtEn= 1.00D+00
 Coeff-En:   0.000D+00 0.000D+00 0.766D+00 0.234D+00
 Coeff:      0.000D+00 0.000D+00 0.766D+00 0.234D+00
 Gap=     0.108 Goal=   None    Shift=    0.000
 RMSDP=1.04D-03 MaxDP=2.89D-02 DE= 6.17D-02 OVMax= 6.18D-02

 Cycle   5  Pass 1  IDiag  1:
 E= -1188.32702882444     Delta-E=       -0.074641546155 Rises=F Damp=F
 DIIS: error= 8.41D-03 at cycle   5 NSaved=   5.
 NSaved= 5 IEnMin= 5 EnMin= -1188.32702882444     IErMin= 5 ErrMin= 8.41D-03
 ErrMax= 8.41D-03 EMaxC= 1.00D-01 BMatC= 5.47D-03 BMatP= 1.48D-02
 IDIUse=3 WtCom= 9.16D-01 WtEn= 8.41D-02
 Coeff-Com:  0.412D-02 0.582D-02 0.352D+00 0.842D-02 0.630D+00
 Coeff-En:   0.000D+00 0.000D+00 0.266D+00 0.000D+00 0.734D+00
 Coeff:      0.377D-02 0.533D-02 0.344D+00 0.771D-02 0.639D+00
 Gap=     0.109 Goal=   None    Shift=    0.000
 RMSDP=3.29D-04 MaxDP=9.76D-03 DE=-7.46D-02 OVMax= 1.79D-02

 Cycle   6  Pass 1  IDiag  1:
 E= -1188.33204123897     Delta-E=       -0.005012414525 Rises=F Damp=F
 DIIS: error= 3.36D-04 at cycle   6 NSaved=   6.
 NSaved= 6 IEnMin= 6 EnMin= -1188.33204123897     IErMin= 6 ErrMin= 3.36D-04
 ErrMax= 3.36D-04 EMaxC= 1.00D-01 BMatC= 1.33D-05 BMatP= 5.47D-03
 IDIUse=3 WtCom= 9.97D-01 WtEn= 3.36D-03
 Coeff-Com:  0.767D-03-0.287D-02 0.581D-01-0.182D-01 0.215D+00 0.747D+00
 Coeff-En:   0.000D+00 0.000D+00 0.000D+00 0.000D+00 0.000D+00 0.100D+01
 Coeff:      0.764D-03-0.286D-02 0.579D-01-0.181D-01 0.214D+00 0.748D+00
 Gap=     0.109 Goal=   None    Shift=    0.000
 RMSDP=1.87D-05 MaxDP=4.07D-04 DE=-5.01D-03 OVMax= 7.35D-04

 Cycle   7  Pass 1  IDiag  1:
 E= -1188.33205319284     Delta-E=       -0.000011953874 Rises=F Damp=F
 DIIS: error= 8.56D-05 at cycle   7 NSaved=   7.
 NSaved= 7 IEnMin= 7 EnMin= -1188.33205319284     IErMin= 7 ErrMin= 8.56D-05
 ErrMax= 8.56D-05 EMaxC= 1.00D-01 BMatC= 9.34D-07 BMatP= 1.33D-05
 IDIUse=1 WtCom= 1.00D+00 WtEn= 0.00D+00
 Coeff-Com:  0.287D-03-0.155D-02 0.226D-01-0.113D-01 0.108D+00 0.454D+00
 Coeff-Com:  0.429D+00
 Coeff:      0.287D-03-0.155D-02 0.226D-01-0.113D-01 0.108D+00 0.454D+00
 Coeff:      0.429D+00
 Gap=     0.109 Goal=   None    Shift=    0.000
 RMSDP=5.11D-06 MaxDP=1.36D-04 DE=-1.20D-05 OVMax= 2.77D-04

 Cycle   8  Pass 1  IDiag  1:
 E= -1188.33205420443     Delta-E=       -0.000001011585 Rises=F Damp=F
 DIIS: error= 6.69D-06 at cycle   8 NSaved=   8.
 NSaved= 8 IEnMin= 8 EnMin= -1188.33205420443     IErMin= 8 ErrMin= 6.69D-06
 ErrMax= 6.69D-06 EMaxC= 1.00D-01 BMatC= 5.24D-09 BMatP= 9.34D-07
 IDIUse=1 WtCom= 1.00D+00 WtEn= 0.00D+00
 Coeff-Com:  0.443D-04-0.243D-03 0.308D-02-0.189D-02 0.175D-01 0.849D-01
 Coeff-Com:  0.101D+00 0.795D+00
 Coeff:      0.443D-04-0.243D-03 0.308D-02-0.189D-02 0.175D-01 0.849D-01
 Coeff:      0.101D+00 0.795D+00
 Gap=     0.109 Goal=   None    Shift=    0.000
 RMSDP=1.02D-06 MaxDP=1.33D-05 DE=-1.01D-06 OVMax= 2.67D-05

 Cycle   9  Pass 1  IDiag  1:
 E= -1188.33205421173     Delta-E=       -0.000000007302 Rises=F Damp=F
 DIIS: error= 5.97D-07 at cycle   9 NSaved=   9.
 NSaved= 9 IEnMin= 9 EnMin= -1188.33205421173     IErMin= 9 ErrMin= 5.97D-07
 ErrMax= 5.97D-07 EMaxC= 1.00D-01 BMatC= 1.29D-10 BMatP= 5.24D-09
 IDIUse=1 WtCom= 1.00D+00 WtEn= 0.00D+00
 Coeff-Com: -0.378D-05 0.128D-04-0.529D-03 0.181D-03-0.184D-02-0.495D-02
 Coeff-Com: -0.228D-02 0.163D+00 0.847D+00
 Coeff:     -0.378D-05 0.128D-04-0.529D-03 0.181D-03-0.184D-02-0.495D-02
 Coeff:     -0.228D-02 0.163D+00 0.847D+00
 Gap=     0.109 Goal=   None    Shift=    0.000
 RMSDP=1.65D-07 MaxDP=2.81D-06 DE=-7.30D-09 OVMax= 7.66D-06

 Cycle  10  Pass 1  IDiag  1:
 E= -1188.33205421190     Delta-E=       -0.000000000176 Rises=F Damp=F
 DIIS: error= 8.13D-07 at cycle  10 NSaved=  10.
 NSaved=10 IEnMin=10 EnMin= -1188.33205421190     IErMin= 9 ErrMin= 5.97D-07
 ErrMax= 8.13D-07 EMaxC= 1.00D-01 BMatC= 3.80D-11 BMatP= 1.29D-10
 IDIUse=1 WtCom= 1.00D+00 WtEn= 0.00D+00
 Coeff-Com: -0.305D-05 0.109D-04-0.370D-03 0.139D-03-0.136D-02-0.400D-02
 Coeff-Com: -0.257D-02 0.946D-01 0.534D+00 0.380D+00
 Coeff:     -0.305D-05 0.109D-04-0.370D-03 0.139D-03-0.136D-02-0.400D-02
 Coeff:     -0.257D-02 0.946D-01 0.534D+00 0.380D+00
 Gap=     0.109 Goal=   None    Shift=    0.000
 RMSDP=4.97D-08 MaxDP=1.10D-06 DE=-1.76D-10 OVMax= 6.79D-06

 Cycle  11  Pass 1  IDiag  1:
 E= -1188.33205421195     Delta-E=       -0.000000000050 Rises=F Damp=F
 DIIS: error= 3.41D-07 at cycle  11 NSaved=  11.
 NSaved=11 IEnMin=11 EnMin= -1188.33205421195     IErMin=11 ErrMin= 3.41D-07
 ErrMax= 3.41D-07 EMaxC= 1.00D-01 BMatC= 8.00D-12 BMatP= 3.80D-11
 IDIUse=1 WtCom= 1.00D+00 WtEn= 0.00D+00
 Coeff-Com: -0.923D-06 0.309D-05-0.526D-04 0.321D-04-0.244D-03-0.858D-03
 Coeff-Com: -0.107D-02 0.369D-04 0.312D-01 0.295D+00 0.676D+00
 Coeff:     -0.923D-06 0.309D-05-0.526D-04 0.321D-04-0.244D-03-0.858D-03
 Coeff:     -0.107D-02 0.369D-04 0.312D-01 0.295D+00 0.676D+00
 Gap=     0.109 Goal=   None    Shift=    0.000
 RMSDP=1.76D-08 MaxDP=3.14D-07 DE=-5.00D-11 OVMax= 2.06D-06

 Cycle  12  Pass 1  IDiag  1:
 E= -1188.33205421197     Delta-E=       -0.000000000014 Rises=F Damp=F
 DIIS: error= 3.28D-08 at cycle  12 NSaved=  12.
 NSaved=12 IEnMin=12 EnMin= -1188.33205421197     IErMin=12 ErrMin= 3.28D-08
 ErrMax= 3.28D-08 EMaxC= 1.00D-01 BMatC= 1.10D-13 BMatP= 8.00D-12
 IDIUse=1 WtCom= 1.00D+00 WtEn= 0.00D+00
 Coeff-Com: -0.256D-06 0.759D-06-0.101D-04 0.794D-05-0.517D-04-0.180D-03
 Coeff-Com: -0.313D-03-0.153D-02-0.721D-03 0.735D-01 0.185D+00 0.744D+00
 Coeff:     -0.256D-06 0.759D-06-0.101D-04 0.794D-05-0.517D-04-0.180D-03
 Coeff:     -0.313D-03-0.153D-02-0.721D-03 0.735D-01 0.185D+00 0.744D+00
 Gap=     0.109 Goal=   None    Shift=    0.000
 RMSDP=2.54D-09 MaxDP=5.33D-08 DE=-1.36D-11 OVMax= 1.52D-07

 SCF Done:  E(RB3LYP) =  -1188.33205421     A.U. after   12 cycles
             Convg  =    0.2538D-08             -V/T =  2.0052
 KE= 1.182197896237D+03 PE=-6.986562229521D+03 EE= 2.511088875057D+03
 Leave Link  502 at Fri Jan  4 14:55:50 2013, MaxMem= 1022361600 cpu:     647.6
 (Enter /export/home/haor/soft/gaussian/g09/l801.exe)
 ExpMin= 4.21D-02 ExpMax= 1.17D+04 ExpMxC= 1.76D+03 IAcc=3 IRadAn=         5 AccDes= 0.00D+00
 HarFok:  IExCor=  205 AccDes= 0.00D+00 IRadAn=         5 IDoV=-2
 ScaDFX=  1.000000  1.000000  1.000000  1.000000
 Largest valence mixing into a core orbital is  1.36D-04
 Largest core mixing into a valence orbital is  6.64D-05
 Range of M.O.s used for correlation:    30   253
 NBasis=   253 NAE=    86 NBE=    86 NFC=    29 NFV=     0
 NROrb=    224 NOA=    57 NOB=    57 NVA=   167 NVB=   167
 Leave Link  801 at Fri Jan  4 14:55:50 2013, MaxMem= 1022361600 cpu:       3.0
 (Enter /export/home/haor/soft/gaussian/g09/l914.exe)
 RHF ground state
 MDV=  1022361600 DFT=T DoStab=F Mixed=T DoRPA=T DoScal=F NonHer=T
 Would need an additional  1281300000 words for in-memory AO integral storage.
 Making orbital integer symmetry assigments:
 Orbital symmetries:
       Occupied  (A) (A) (A) (A) (A) (A) (A) (A) (A) (A) (A) (A)
                 (A) (A) (A) (A) (A) (A) (A) (A) (A) (A) (A) (A)
                 (A) (A) (A) (A) (A) (A) (A) (A) (A) (A) (A) (A)
                 (A) (A) (A) (A) (A) (A) (A) (A) (A) (A) (A) (A)
                 (A) (A) (A) (A) (A) (A) (A) (A) (A) (A) (A) (A)
                 (A) (A) (A) (A) (A) (A) (A) (A) (A) (A) (A) (A)
                 (A) (A) (A) (A) (A) (A) (A) (A) (A) (A) (A) (A)
                 (A) (A)
       Virtual   (A) (A) (A) (A) (A) (A) (A) (A) (A) (A) (A) (A)
                 (A) (A) (A) (A) (A) (A) (A) (A) (A) (A) (A) (A)
                 (A) (A) (A) (A) (A) (A) (A) (A) (A) (A) (A) (A)
                 (A) (A) (A) (A) (A) (A) (A) (A) (A) (A) (A) (A)
                 (A) (A) (A) (A) (A) (A) (A) (A) (A) (A) (A) (A)
                 (A) (A) (A) (A) (A) (A) (A) (A) (A) (A) (A) (A)
                 (A) (A) (A) (A) (A) (A) (A) (A) (A) (A) (A) (A)
                 (A) (A) (A) (A) (A) (A) (A) (A) (A) (A) (A) (A)
                 (A) (A) (A) (A) (A) (A) (A) (A) (A) (A) (A) (A)
                 (A) (A) (A) (A) (A) (A) (A) (A) (A) (A) (A) (A)
                 (A) (A) (A) (A) (A) (A) (A) (A) (A) (A) (A) (A)
                 (A) (A) (A) (A) (A) (A) (A) (A) (A) (A) (A) (A)
                 (A) (A) (A) (A) (A) (A) (A) (A) (A) (A) (A) (A)
                 (A) (A) (A) (A) (A) (A) (A) (A) (A) (A) (A)
   160 initial guesses have been made.
 Convergence on wavefunction:    0.001000000000000
 Davidson Disk Diagonalization:  ConvIn= 1.00D-03 SkipCon=T Conv= 1.00D-03.
 Max sub-space:   640 roots to seek:   160 dimension of matrix:  19038
 Iteration     1 Dimension   160 NMult   160
 Cannot handle 2e integral symmetry, ISym2E=1.
 CISAX:  IP=  8 NPass=   1 NMax=   160.
 CISAX will form   160 AO SS matrices at one time.
 NMat=   160 NSing=   160.
 Symmetry not used in FoFDir.
 MinBra= 0 MaxBra= 1 Meth= 1.
 IRaf=       0 NMat= 160 IRICut=     400 DoRegI=T DoRafI=T ISym2E= 0 JSym2E=0.
 Cannot handle 2e integral symmetry, ISym2E=1.
 CISAX:  IP=  8 NPass=   1 NMax=   160.
 CISAX will form   160 AO SS matrices at one time.
 NMat=   160 NSing=   160.
 New state      1 was old state      2
 New state      2 was old state      1
 New state      3 was old state      7
 New state      4 was old state      5
 New state      5 was old state      6
 New state      6 was old state     10
 New state      7 was old state      9
 New state      8 was old state      3
 New state      9 was old state      4
 New state     10 was old state     11
 New state     11 was old state      8
 New state     17 was old state     18
 New state     18 was old state     17
 New state     19 was old state     24
 New state     20 was old state     25
 New state     21 was old state     27
 New state     22 was old state     26
 New state     23 was old state     33
 New state     24 was old state     21
 New state     25 was old state     29
 New state     26 was old state     36
 New state     27 was old state     28
 New state     28 was old state     22
 New state     29 was old state     23
 New state     30 was old state     32
 New state     32 was old state     30
 New state     33 was old state     34
 New state     34 was old state     35
 New state     35 was old state     37
 New state     36 was old state     19
 New state     37 was old state     40
 New state     38 was old state     39
 No map to state     39
 No map to state     40
 Excitation Energies [eV] at current iteration:
 Root      1 :     2.554736555220007
 Root      2 :     2.554738013969331
 Root      3 :     3.794985596140256
 Root      4 :     3.862075217584166
 Root      5 :     3.862083385406578
 Root      6 :     3.887760187460759
 Root      7 :     4.027016196971086
 Root      8 :     4.075467253236231
 Root      9 :     4.075472339195036
 Root     10 :     4.184940719846983
 Root     11 :     4.195875354401070
 Root     12 :     4.381784366865139
 Root     13 :     4.411752097125591
 Root     14 :     4.411756152973062
 Root     15 :     4.481333034410586
 Root     16 :     4.481338593841636
 Root     17 :     4.774026352563910
 Root     18 :     5.116080966587626
 Root     19 :     5.261345205343368
 Root     20 :     5.300916868135581
 Root     21 :     5.370847799729987
 Root     22 :     5.389788322823100
 Root     23 :     5.431607212044320
 Root     24 :     5.514093271103617
 Root     25 :     5.521735000865826
 Root     26 :     5.546816293212063
 Root     27 :     5.556107752195762
 Root     28 :     5.590777112842530
 Root     29 :     5.590785775823310
 Root     30 :     5.694673114868718
 Root     31 :     5.729665118318431
 Root     32 :     6.052137448806945
 Root     33 :     6.195581414588102
 Root     34 :     6.195586440298647
 Root     35 :     6.216032502405315
 Root     36 :     6.391074320605240
 Root     37 :     6.397956793645867
 Root     38 :     6.397964730465943
 Root     39 :     6.654119393843682
 Root     40 :     6.654125360215407
 Iteration     2 Dimension   240 NMult   240
 Cannot handle 2e integral symmetry, ISym2E=1.
 CISAX:  IP=  8 NPass=   1 NMax=    80.
 CISAX will form    80 AO SS matrices at one time.
 NMat=    80 NSing=    80.
 Cannot handle 2e integral symmetry, ISym2E=1.
 CISAX:  IP=  8 NPass=   1 NMax=    80.
 CISAX will form    80 AO SS matrices at one time.
 NMat=    80 NSing=    80.
 Root      1 not converged, maximum delta is    0.057056206686849
 Root      2 not converged, maximum delta is    0.057055919389680
 New state      3 was old state      4
 Root      3 not converged, maximum delta is    0.351413320878500
 New state      4 was old state      5
 Root      4 not converged, maximum delta is    0.351418116432768
 New state      5 was old state      3
 Root      5 not converged, maximum delta is    0.045473366593890
 Root      6 not converged, maximum delta is    0.048700826008067
 New state      7 was old state      8
 Root      7 not converged, maximum delta is    0.370967928057947
 New state      8 was old state      9
 Root      8 not converged, maximum delta is    0.370960410316764
 New state      9 was old state      7
 Root      9 not converged, maximum delta is    0.061178091050489
 New state     10 was old state     11
 Root     10 not converged, maximum delta is    0.061061212107219
 New state     11 was old state     10
 Root     11 not converged, maximum delta is    0.038288802208389
 New state     12 was old state     13
 Root     12 not converged, maximum delta is    0.081228085252153
 New state     13 was old state     14
 Root     13 not converged, maximum delta is    0.081226481373697
 New state     14 was old state     12
 Root     14 not converged, maximum delta is    0.043070872634984
 Root     15 not converged, maximum delta is    0.013548062735203
 Root     16 not converged, maximum delta is    0.013548356864637
 Root     17 not converged, maximum delta is    0.072561147411674
 Root     18 not converged, maximum delta is    0.081257005743394
 New state     19 was old state     23
 Root     19 not converged, maximum delta is    0.145484758826305
 New state     20 was old state     19
 Root     20 not converged, maximum delta is    0.015434635437942
 New state     21 was old state     20
 Root     21 not converged, maximum delta is    0.007976284836273
 New state     22 was old state     26
 Root     22 not converged, maximum delta is    0.115656828618056
 New state     23 was old state     21
 Root     23 not converged, maximum delta is    0.027774638570895
 New state     24 was old state     22
 Root     24 not converged, maximum delta is    0.034945879130884
 New state     25 was old state     24
 Root     25 not converged, maximum delta is    0.077175713175560
 New state     26 was old state     28
 Root     26 not converged, maximum delta is    0.054040795528486
 New state     27 was old state     29
 Root     27 not converged, maximum delta is    0.054042325468664
 New state     28 was old state     27
 Root     28 not converged, maximum delta is    0.056672626708918
 New state     29 was old state     25
 Root     29 not converged, maximum delta is    0.056460608989419
 New state     30 was old state     31
 Root     30 not converged, maximum delta is    0.067669691298026
 New state     31 was old state     30
 Root     31 not converged, maximum delta is    0.033337933196960
 Root     32 not converged, maximum delta is    0.058023532881235
 New state     33 was old state     36
 Root     33 not converged, maximum delta is    0.200732701963508
 New state     34 was old state     33
 Root     34 not converged, maximum delta is    0.110246531194575
 New state     35 was old state     34
 Root     35 not converged, maximum delta is    0.110248788231173
 New state     36 was old state     35
 Root     36 not converged, maximum delta is    0.023752235242446
 No map to state     37
 New state     38 was old state     37
 Root     38 not converged, maximum delta is    0.102737804477804
 New state     39 was old state     38
 Root     39 not converged, maximum delta is    0.102735898223803
 No map to state     40
 Excitation Energies [eV] at current iteration:
 Root      1 :     2.414305977063238   Change is   -0.140430578156768
 Root      2 :     2.414306705030569   Change is   -0.140431308938762
 Root      3 :     3.556291783528568   Change is   -0.305783434055598
 Root      4 :     3.556294073256271   Change is   -0.305789312150307
 Root      5 :     3.712659315172943   Change is   -0.082326280967313
 Root      6 :     3.761603090554775   Change is   -0.126157096905984
 Root      7 :     3.782041280075856   Change is   -0.293425973160375
 Root      8 :     3.782048542546310   Change is   -0.293423796648727
 Root      9 :     3.906484286647324   Change is   -0.120531910323762
 Root     10 :     3.990931634144097   Change is   -0.204943720256973
 Root     11 :     4.104808566822765   Change is   -0.080132153024218
 Root     12 :     4.237979291074435   Change is   -0.173772806051156
 Root     13 :     4.237983978703214   Change is   -0.173772174269848
 Root     14 :     4.300100517581861   Change is   -0.081683849283278
 Root     15 :     4.463676278315533   Change is   -0.017656756095053
 Root     16 :     4.463681815820965   Change is   -0.017656778020671
 Root     17 :     4.697275563949640   Change is   -0.076750788614269
 Root     18 :     4.879281300011101   Change is   -0.236799666576525
 Root     19 :     5.192667842541888   Change is   -0.238939369502431
 Root     20 :     5.247716056952084   Change is   -0.013629148391283
 Root     21 :     5.291934914935466   Change is   -0.008981953200115
 Root     22 :     5.326763456020548   Change is   -0.220052837191515
 Root     23 :     5.340237186436615   Change is   -0.030610613293372
 Root     24 :     5.362736834670142   Change is   -0.027051488152958
 Root     25 :     5.391798662374526   Change is   -0.122294608729090
 Root     26 :     5.473003621444200   Change is   -0.117773491398330
 Root     27 :     5.473012523512825   Change is   -0.117773252310485
 Root     28 :     5.506638311092310   Change is   -0.049469441103452
 Root     29 :     5.509328831294470   Change is   -0.012406169571357
 Root     30 :     5.682543738490800   Change is   -0.047121379827631
 Root     31 :     5.687399968757350   Change is   -0.007273146111368
 Root     32 :     5.869900202544640   Change is   -0.182237246262306
 Root     33 :     6.056154573829055   Change is   -0.334919746776185
 Root     34 :     6.086151797526135   Change is   -0.109429617061967
 Root     35 :     6.086157453590594   Change is   -0.109428986708053
 Root     36 :     6.204159814684684   Change is   -0.011872687720631
 Root     37 :     6.291324725622081
 Root     38 :     6.332660333448915   Change is   -0.065296460196952
 Root     39 :     6.332669029634766   Change is   -0.065295700831177
 Root     40 :     6.533255023287942
 Iteration     3 Dimension   320 NMult   320
 Cannot handle 2e integral symmetry, ISym2E=1.
 CISAX:  IP=  8 NPass=   1 NMax=    80.
 CISAX will form    80 AO SS matrices at one time.
 NMat=    80 NSing=    80.
 Cannot handle 2e integral symmetry, ISym2E=1.
 CISAX:  IP=  8 NPass=   1 NMax=    80.
 CISAX will form    80 AO SS matrices at one time.
 NMat=    80 NSing=    80.
 Root      1 not converged, maximum delta is    0.012200813957018
 Root      2 not converged, maximum delta is    0.012200853834860
 New state      3 was old state      4
 Root      3 not converged, maximum delta is    0.250078328766930
 New state      4 was old state      3
 Root      4 not converged, maximum delta is    0.250075643107170
 Root      5 has converged.
 Root      6 not converged, maximum delta is    0.001161907494749
 Root      7 not converged, maximum delta is    0.284672323959524
 Root      8 not converged, maximum delta is    0.284659763121141
 Root      9 not converged, maximum delta is    0.002712272650600
 Root     10 not converged, maximum delta is    0.004021382169070
 Root     11 not converged, maximum delta is    0.002215393572483
 Root     12 not converged, maximum delta is    0.417824311031329
 Root     13 not converged, maximum delta is    0.417822342179265
 Root     14 not converged, maximum delta is    0.002165574393202
 Root     15 not converged, maximum delta is    0.001011993073192
 Root     16 not converged, maximum delta is    0.001011989584758
 Root     17 not converged, maximum delta is    0.001709696233698
 Root     18 not converged, maximum delta is    0.004116459304029
 Root     19 not converged, maximum delta is    0.006024221346676
 Root     20 not converged, maximum delta is    0.002572886536850
 Root     21 not converged, maximum delta is    0.001412960531931
 Root     22 not converged, maximum delta is    0.004745920536372
 Root     23 not converged, maximum delta is    0.001920759950366
 Root     24 not converged, maximum delta is    0.001947609069711
 Root     25 not converged, maximum delta is    0.001613272472047
 Root     26 not converged, maximum delta is    0.154160421359892
 Root     27 not converged, maximum delta is    0.154158872697621
 Root     28 not converged, maximum delta is    0.011160287208439
 Root     29 not converged, maximum delta is    0.011121803886269
 Root     30 not converged, maximum delta is    0.002728250770170
 Root     31 not converged, maximum delta is    0.002711574544948
 Root     32 not converged, maximum delta is    0.001625754019140
 Root     33 not converged, maximum delta is    0.005555363345695
 Root     34 not converged, maximum delta is    0.329022356586600
 Root     35 not converged, maximum delta is    0.329003463263538
 Root     36 not converged, maximum delta is    0.002654364306539
 Root     37 not converged, maximum delta is    0.004685184952478
 Root     38 not converged, maximum delta is    0.149045977249938
 Root     39 not converged, maximum delta is    0.149048908976327
 Root     40 not converged, maximum delta is    0.024424106227707
 Excitation Energies [eV] at current iteration:
 Root      1 :     2.412059150805550   Change is   -0.002246826257689
 Root      2 :     2.412060362059275   Change is   -0.002246342971294
 Root      3 :     3.541096721882869   Change is   -0.015197351373402
 Root      4 :     3.541120766818722   Change is   -0.015171016709845
 Root      5 :     3.711944219630298   Change is   -0.000715095542645
 Root      6 :     3.760453185879851   Change is   -0.001149904674924
 Root      7 :     3.777342483802888   Change is   -0.004698796272969
 Root      8 :     3.777359379328478   Change is   -0.004689163217832
 Root      9 :     3.904737889095722   Change is   -0.001746397551602
 Root     10 :     3.987150449190158   Change is   -0.003781184953939
 Root     11 :     4.103352156964244   Change is   -0.001456409858521
 Root     12 :     4.233910835166314   Change is   -0.004068455908122
 Root     13 :     4.233913456176415   Change is   -0.004070522526799
 Root     14 :     4.296906011131750   Change is   -0.003194506450111
 Root     15 :     4.463252800283798   Change is   -0.000423478031734
 Root     16 :     4.463258337516616   Change is   -0.000423478304349
 Root     17 :     4.696234026419408   Change is   -0.001041537530232
 Root     18 :     4.875252307809113   Change is   -0.004028992201989
 Root     19 :     5.184063888299099   Change is   -0.008603954242789
 Root     20 :     5.247420567953415   Change is   -0.000295488998670
 Root     21 :     5.291702131676510   Change is   -0.000232783258956
 Root     22 :     5.320909591885404   Change is   -0.005853864135143
 Root     23 :     5.339549678816118   Change is   -0.000687507620497
 Root     24 :     5.361798153071829   Change is   -0.000938681598313
 Root     25 :     5.390353437959589   Change is   -0.001445224414938
 Root     26 :     5.470772247684902   Change is   -0.002231373759298
 Root     27 :     5.470783137749891   Change is   -0.002229385762935
 Root     28 :     5.505576345751428   Change is   -0.001061965340882
 Root     29 :     5.508988188442825   Change is   -0.000340642851645
 Root     30 :     5.682018060764982   Change is   -0.000525677725818
 Root     31 :     5.687370386586013   Change is   -0.000029582171336
 Root     32 :     5.867711182803855   Change is   -0.002189019740786
 Root     33 :     6.047177114681825   Change is   -0.008977459147230
 Root     34 :     6.081987034170154   Change is   -0.004164763355981
 Root     35 :     6.081998274559331   Change is   -0.004159179031263
 Root     36 :     6.203978245103936   Change is   -0.000181569580747
 Root     37 :     6.281930438273868   Change is   -0.009394287348213
 Root     38 :     6.330154428359728   Change is   -0.002505905089187
 Root     39 :     6.330161512689354   Change is   -0.002507516945411
 Root     40 :     6.529466951795500   Change is   -0.003788071492442
 Iteration     4 Dimension   398 NMult   398
 Cannot handle 2e integral symmetry, ISym2E=1.
 CISAX:  IP=  8 NPass=   1 NMax=    78.
 CISAX will form    78 AO SS matrices at one time.
 NMat=    78 NSing=    78.
 Cannot handle 2e integral symmetry, ISym2E=1.
 CISAX:  IP=  8 NPass=   1 NMax=    78.
 CISAX will form    78 AO SS matrices at one time.
 NMat=    78 NSing=    78.
 Root      1 not converged, maximum delta is    0.016456313686185
 Root      2 not converged, maximum delta is    0.016456330223758
 New state      3 was old state      4
 Root      3 not converged, maximum delta is    0.166654990629296
 New state      4 was old state      3
 Root      4 not converged, maximum delta is    0.166657408105662
 Root      5 has converged.
 Root      6 has converged.
 Root      7 not converged, maximum delta is    0.288167885356979
 Root      8 not converged, maximum delta is    0.288154927926782
 Root      9 has converged.
 Root     10 has converged.
 Root     11 has converged.
 Root     12 not converged, maximum delta is    0.416479093162350
 Root     13 not converged, maximum delta is    0.416477225322094
 Root     14 has converged.
 Root     15 has converged.
 Root     16 has converged.
 Root     17 has converged.
 Root     18 has converged.
 Root     19 has converged.
 Root     20 has converged.
 Root     21 has converged.
 Root     22 has converged.
 Root     23 has converged.
 Root     24 has converged.
 Root     25 has converged.
 Root     26 not converged, maximum delta is    0.148771614104874
 Root     27 not converged, maximum delta is    0.148770068619068
 Root     28 has converged.
 Root     29 has converged.
 Root     30 has converged.
 Root     31 has converged.
 Root     32 has converged.
 Root     33 not converged, maximum delta is    0.001035106876878
 Root     34 not converged, maximum delta is    0.276597693409808
 Root     35 not converged, maximum delta is    0.276582098053499
 Root     36 has converged.
 Root     37 not converged, maximum delta is    0.001105150479711
 Root     38 not converged, maximum delta is    0.136353378904399
 Root     39 not converged, maximum delta is    0.136360704337633
 Root     40 not converged, maximum delta is    0.001058547194689
 Excitation Energies [eV] at current iteration:
 Root      1 :     2.412032652927018   Change is   -0.000026497878532
 Root      2 :     2.412033180468462   Change is   -0.000027181590814
 Root      3 :     3.540947616411826   Change is   -0.000173150406896
 Root      4 :     3.540950337676180   Change is   -0.000146384206689
 Root      5 :     3.711934309471674   Change is   -0.000009910158625
 Root      6 :     3.760431615356156   Change is   -0.000021570523695
 Root      7 :     3.777294272781464   Change is   -0.000048211021424
 Root      8 :     3.777301608184584   Change is   -0.000057771143893
 Root      9 :     3.904717536292343   Change is   -0.000020352803379
 Root     10 :     3.987029649725258   Change is   -0.000120799464900
 Root     11 :     4.103318404201428   Change is   -0.000033752762817
 Root     12 :     4.233840468499293   Change is   -0.000070366667020
 Root     13 :     4.233845092094378   Change is   -0.000068364082037
 Root     14 :     4.296852327449581   Change is   -0.000053683682169
 Root     15 :     4.463233354734091   Change is   -0.000019445549707
 Root     16 :     4.463238699952138   Change is   -0.000019637564478
 Root     17 :     4.696212260992503   Change is   -0.000021765426905
 Root     18 :     4.875148989898336   Change is   -0.000103317910777
 Root     19 :     5.183881970641048   Change is   -0.000181917658051
 Root     20 :     5.247410437863635   Change is   -0.000010130089780
 Root     21 :     5.291691904589567   Change is   -0.000010227086943
 Root     22 :     5.320718283822724   Change is   -0.000191308062680
 Root     23 :     5.339514866260440   Change is   -0.000034812555678
 Root     24 :     5.361757863082651   Change is   -0.000040289989179
 Root     25 :     5.390317124949729   Change is   -0.000036313009859
 Root     26 :     5.470714600862292   Change is   -0.000057646822610
 Root     27 :     5.470723566498838   Change is   -0.000059571251053
 Root     28 :     5.505516782861723   Change is   -0.000059562889705
 Root     29 :     5.508972326435812   Change is   -0.000015862007013
 Root     30 :     5.681997868839238   Change is   -0.000020191925744
 Root     31 :     5.687369474764376   Change is   -0.000000911821638
 Root     32 :     5.867641637059641   Change is   -0.000069545744213
 Root     33 :     6.046932089663628   Change is   -0.000245025018197
 Root     34 :     6.081874683048034   Change is   -0.000112351122119
 Root     35 :     6.081880447951635   Change is   -0.000117826607696
 Root     36 :     6.203971023348259   Change is   -0.000007221755677
 Root     37 :     6.281609730291231   Change is   -0.000320707982636
 Root     38 :     6.330071067696601   Change is   -0.000083360663128
 Root     39 :     6.330079500310322   Change is   -0.000082012379033
 Root     40 :     6.529350379679747   Change is   -0.000116572115752
 Iteration     5 Dimension   432 NMult   432
 Cannot handle 2e integral symmetry, ISym2E=1.
 CISAX:  IP=  8 NPass=   1 NMax=    34.
 CISAX will form    34 AO SS matrices at one time.
 NMat=    34 NSing=    34.
 Cannot handle 2e integral symmetry, ISym2E=1.
 CISAX:  IP=  8 NPass=   1 NMax=    34.
 CISAX will form    34 AO SS matrices at one time.
 NMat=    34 NSing=    34.
 Root      1 not converged, maximum delta is    0.002738731992688
 Root      2 not converged, maximum delta is    0.002738720776977
 Root      3 not converged, maximum delta is    0.122323971095108
 Root      4 not converged, maximum delta is    0.122324266938884
 Root      5 has converged.
 Root      6 has converged.
 Root      7 not converged, maximum delta is    0.004716500800211
 Root      8 not converged, maximum delta is    0.004716530827754
 Root      9 has converged.
 Root     10 has converged.
 Root     11 has converged.
 Root     12 not converged, maximum delta is    0.001483073663081
 Root     13 not converged, maximum delta is    0.001482972025166
 Root     14 has converged.
 Root     15 has converged.
 Root     16 has converged.
 Root     17 has converged.
 Root     18 has converged.
 Root     19 has converged.
 Root     20 has converged.
 Root     21 has converged.
 Root     22 has converged.
 Root     23 has converged.
 Root     24 has converged.
 Root     25 has converged.
 Root     26 not converged, maximum delta is    0.004060756560394
 Root     27 not converged, maximum delta is    0.004060774223949
 Root     28 has converged.
 Root     29 has converged.
 Root     30 has converged.
 Root     31 has converged.
 Root     32 has converged.
 Root     33 has converged.
 Root     34 not converged, maximum delta is    0.044748897605877
 Root     35 not converged, maximum delta is    0.044746124221865
 Root     36 has converged.
 Root     37 has converged.
 Root     38 not converged, maximum delta is    0.010788270541634
 Root     39 not converged, maximum delta is    0.010783796078598
 Root     40 has converged.
 Excitation Energies [eV] at current iteration:
 Root      1 :     2.412032379605997   Change is   -0.000000273321021
 Root      2 :     2.412033088429818   Change is   -0.000000092038644
 Root      3 :     3.540945423540416   Change is   -0.000002192871411
 Root      4 :     3.540947506339341   Change is   -0.000002831336838
 Root      5 :     3.711934309448273   Change is   -0.000000000023400
 Root      6 :     3.760431591540237   Change is   -0.000000023815919
 Root      7 :     3.777293735762544   Change is   -0.000000537018919
 Root      8 :     3.777301055658976   Change is   -0.000000552525609
 Root      9 :     3.904717467788286   Change is   -0.000000068504057
 Root     10 :     3.987029649717273   Change is   -0.000000000007985
 Root     11 :     4.103318289605746   Change is   -0.000000114595681
 Root     12 :     4.233839462913938   Change is   -0.000001005585355
 Root     13 :     4.233844144091970   Change is   -0.000000948002408
 Root     14 :     4.296852088504169   Change is   -0.000000238945412
 Root     15 :     4.463233354640080   Change is   -0.000000000094011
 Root     16 :     4.463238699890249   Change is   -0.000000000061888
 Root     17 :     4.696212260982507   Change is   -0.000000000009997
 Root     18 :     4.875148989891511   Change is   -0.000000000006825
 Root     19 :     5.183880019529868   Change is   -0.000001951111180
 Root     20 :     5.247410437851280   Change is   -0.000000000012355
 Root     21 :     5.291691904570274   Change is   -0.000000000019293
 Root     22 :     5.320714574524932   Change is   -0.000003709297792
 Root     23 :     5.339514866062689   Change is   -0.000000000197751
 Root     24 :     5.361757863070713   Change is   -0.000000000011937
 Root     25 :     5.390317124926884   Change is   -0.000000000022846
 Root     26 :     5.470712973547566   Change is   -0.000001627314726
 Root     27 :     5.470721884284745   Change is   -0.000001682214092
 Root     28 :     5.505516782854878   Change is   -0.000000000006845
 Root     29 :     5.508972326418974   Change is   -0.000000000016837
 Root     30 :     5.681997868835865   Change is   -0.000000000003373
 Root     31 :     5.687369474755593   Change is   -0.000000000008784
 Root     32 :     5.867641472660968   Change is   -0.000000164398674
 Root     33 :     6.046920216896953   Change is   -0.000011872766675
 Root     34 :     6.081869278639743   Change is   -0.000005404408291
 Root     35 :     6.081874950450628   Change is   -0.000005497501007
 Root     36 :     6.203971023143257   Change is   -0.000000000205002
 Root     37 :     6.281586959648382   Change is   -0.000022770642849
 Root     38 :     6.330066561058233   Change is   -0.000004506638367
 Root     39 :     6.330075187475731   Change is   -0.000004312834591
 Root     40 :     6.529345380480140   Change is   -0.000004999199607
 Iteration     6 Dimension   460 NMult   460
 Cannot handle 2e integral symmetry, ISym2E=1.
 CISAX:  IP=  8 NPass=   1 NMax=    28.
 CISAX will form    28 AO SS matrices at one time.
 NMat=    28 NSing=    28.
 Cannot handle 2e integral symmetry, ISym2E=1.
 CISAX:  IP=  8 NPass=   1 NMax=    28.
 CISAX will form    28 AO SS matrices at one time.
 NMat=    28 NSing=    28.
 Root      1 has converged.
 Root      2 has converged.
 Root      3 not converged, maximum delta is    0.016514847687719
 Root      4 not converged, maximum delta is    0.016514815164826
 Root      5 has converged.
 Root      6 has converged.
 Root      7 has converged.
 Root      8 has converged.
 Root      9 has converged.
 Root     10 has converged.
 Root     11 has converged.
 Root     12 not converged, maximum delta is    0.001257199606504
 Root     13 not converged, maximum delta is    0.001257181383769
 Root     14 has converged.
 Root     15 has converged.
 Root     16 has converged.
 Root     17 has converged.
 Root     18 has converged.
 Root     19 has converged.
 Root     20 has converged.
 Root     21 has converged.
 Root     22 has converged.
 Root     23 has converged.
 Root     24 has converged.
 Root     25 has converged.
 Root     26 not converged, maximum delta is    0.001190095914801
 Root     27 not converged, maximum delta is    0.001190093725497
 Root     28 has converged.
 Root     29 has converged.
 Root     30 has converged.
 Root     31 has converged.
 Root     32 has converged.
 Root     33 has converged.
 Root     34 not converged, maximum delta is    0.006164159214770
 Root     35 not converged, maximum delta is    0.006163831294435
 Root     36 has converged.
 Root     37 has converged.
 Root     38 not converged, maximum delta is    0.002004122267514
 Root     39 not converged, maximum delta is    0.002004023058533
 Root     40 has converged.
 Excitation Energies [eV] at current iteration:
 Root      1 :     2.412032362848532   Change is   -0.000000016757465
 Root      2 :     2.412033063560991   Change is   -0.000000024868827
 Root      3 :     3.540945253254260   Change is   -0.000000170286155
 Root      4 :     3.540947386575214   Change is   -0.000000119764127
 Root      5 :     3.711934309423141   Change is   -0.000000000025132
 Root      6 :     3.760431591466464   Change is   -0.000000000073773
 Root      7 :     3.777293708955436   Change is   -0.000000026807108
 Root      8 :     3.777301030510270   Change is   -0.000000025148706
 Root      9 :     3.904717467728257   Change is   -0.000000000060029
 Root     10 :     3.987029649559767   Change is   -0.000000000157507
 Root     11 :     4.103318289599302   Change is   -0.000000000006445
 Root     12 :     4.233839367329903   Change is   -0.000000095584035
 Root     13 :     4.233844092804959   Change is   -0.000000051287011
 Root     14 :     4.296852088443188   Change is   -0.000000000060981
 Root     15 :     4.463233354467866   Change is   -0.000000000172214
 Root     16 :     4.463238699608286   Change is   -0.000000000281963
 Root     17 :     4.696212260974005   Change is   -0.000000000008501
 Root     18 :     4.875148989809022   Change is   -0.000000000082490
 Root     19 :     5.183880019290097   Change is   -0.000000000239771
 Root     20 :     5.247410437763256   Change is   -0.000000000088023
 Root     21 :     5.291691904504266   Change is   -0.000000000066008
 Root     22 :     5.320714574503402   Change is   -0.000000000021530
 Root     23 :     5.339514865969584   Change is   -0.000000000093105
 Root     24 :     5.361757862812219   Change is   -0.000000000258494
 Root     25 :     5.390317124898500   Change is   -0.000000000028384
 Root     26 :     5.470712856280022   Change is   -0.000000117267544
 Root     27 :     5.470721795417652   Change is   -0.000000088867094
 Root     28 :     5.505516782816911   Change is   -0.000000000037967
 Root     29 :     5.508972326315155   Change is   -0.000000000103820
 Root     30 :     5.681997868827708   Change is   -0.000000000008156
 Root     31 :     5.687369474747437   Change is   -0.000000000008155
 Root     32 :     5.867641472615844   Change is   -0.000000000045124
 Root     33 :     6.046920216576742   Change is   -0.000000000320210
 Root     34 :     6.081868907973969   Change is   -0.000000370665774
 Root     35 :     6.081874577437091   Change is   -0.000000373013538
 Root     36 :     6.203971023062612   Change is   -0.000000000080644
 Root     37 :     6.281586959612305   Change is   -0.000000000036078
 Root     38 :     6.330066210687042   Change is   -0.000000350371191
 Root     39 :     6.330074872801191   Change is   -0.000000314674540
 Root     40 :     6.529345069216911   Change is   -0.000000311263229
 Iteration     7 Dimension   480 NMult   480
 Cannot handle 2e integral symmetry, ISym2E=1.
 CISAX:  IP=  8 NPass=   1 NMax=    20.
 CISAX will form    20 AO SS matrices at one time.
 NMat=    20 NSing=    20.
 Cannot handle 2e integral symmetry, ISym2E=1.
 CISAX:  IP=  8 NPass=   1 NMax=    20.
 CISAX will form    20 AO SS matrices at one time.
 NMat=    20 NSing=    20.
 Root      1 has converged.
 Root      2 has converged.
 Root      3 not converged, maximum delta is    0.005703737177608
 Root      4 not converged, maximum delta is    0.005703720212887
 Root      5 has converged.
 Root      6 has converged.
 Root      7 has converged.
 Root      8 has converged.
 Root      9 has converged.
 Root     10 has converged.
 Root     11 has converged.
 Root     12 not converged, maximum delta is    0.001301858667383
 Root     13 not converged, maximum delta is    0.001301850899487
 Root     14 has converged.
 Root     15 has converged.
 Root     16 has converged.
 Root     17 has converged.
 Root     18 has converged.
 Root     19 has converged.
 Root     20 has converged.
 Root     21 has converged.
 Root     22 has converged.
 Root     23 has converged.
 Root     24 has converged.
 Root     25 has converged.
 Root     26 has converged.
 Root     27 has converged.
 Root     28 has converged.
 Root     29 has converged.
 Root     30 has converged.
 Root     31 has converged.
 Root     32 has converged.
 Root     33 has converged.
 Root     34 has converged.
 Root     35 has converged.
 Root     36 has converged.
 Root     37 has converged.
 Root     38 has converged.
 Root     39 has converged.
 Root     40 has converged.
 Excitation Energies [eV] at current iteration:
 Root      1 :     2.412032361634575   Change is   -0.000000001213957
 Root      2 :     2.412033062212718   Change is   -0.000000001348274
 Root      3 :     3.540945202485615   Change is   -0.000000050768645
 Root      4 :     3.540947323722194   Change is   -0.000000062853020
 Root      5 :     3.711934309407918   Change is   -0.000000000015223
 Root      6 :     3.760431591413029   Change is   -0.000000000053435
 Root      7 :     3.777293704188553   Change is   -0.000000004766884
 Root      8 :     3.777301020217731   Change is   -0.000000010292539
 Root      9 :     3.904717467714597   Change is   -0.000000000013661
 Root     10 :     3.987029649070303   Change is   -0.000000000489464
 Root     11 :     4.103318289594151   Change is   -0.000000000005151
 Root     12 :     4.233839347141427   Change is   -0.000000020188476
 Root     13 :     4.233844055916021   Change is   -0.000000036888938
 Root     14 :     4.296852088400668   Change is   -0.000000000042521
 Root     15 :     4.463233353845090   Change is   -0.000000000622776
 Root     16 :     4.463238699193703   Change is   -0.000000000414584
 Root     17 :     4.696212260970843   Change is   -0.000000000003162
 Root     18 :     4.875148989568777   Change is   -0.000000000240245
 Root     19 :     5.183880019163819   Change is   -0.000000000126278
 Root     20 :     5.247410437722076   Change is   -0.000000000041181
 Root     21 :     5.291691904280113   Change is   -0.000000000224153
 Root     22 :     5.320714574485081   Change is   -0.000000000018321
 Root     23 :     5.339514863849156   Change is   -0.000000002120428
 Root     24 :     5.361757862662154   Change is   -0.000000000150066
 Root     25 :     5.390317124870654   Change is   -0.000000000027846
 Root     26 :     5.470712850824950   Change is   -0.000000005455071
 Root     27 :     5.470721760708694   Change is   -0.000000034708957
 Root     28 :     5.505516782745438   Change is   -0.000000000071473
 Root     29 :     5.508972326175854   Change is   -0.000000000139301
 Root     30 :     5.681997868796667   Change is   -0.000000000031041
 Root     31 :     5.687369474743991   Change is   -0.000000000003446
 Root     32 :     5.867641472576759   Change is   -0.000000000039085
 Root     33 :     6.046920216492190   Change is   -0.000000000084553
 Root     34 :     6.081868846932322   Change is   -0.000000061041648
 Root     35 :     6.081874522975254   Change is   -0.000000054461837
 Root     36 :     6.203971022974445   Change is   -0.000000000088168
 Root     37 :     6.281586959558393   Change is   -0.000000000053913
 Root     38 :     6.330066177174042   Change is   -0.000000033513000
 Root     39 :     6.330074848003997   Change is   -0.000000024797194
 Root     40 :     6.529344997948604   Change is   -0.000000071268307
 Convergence on energies, max DE= 7.13D-08.
 Convergence on expansion vectors.
 ***********************************************************************
 Excited states from <AA,BB:AA,BB> singles matrix:
 ***********************************************************************
 
 1PDM for each excited state written to RWF  633
 Ground to excited state transition densities written to RWF  633
 Ground to excited state transition electric dipole moments (Au):
       state          X           Y           Z        Dip. S.      Osc.
         1        -0.0008     -0.0092      0.0000      0.0001      0.0000
         2        -0.0092      0.0008      0.0000      0.0001      0.0000
         3        -2.1911      2.2662      0.0000      9.9364      0.8620
         4         2.2662      2.1911      0.0000      9.9366      0.8620
         5        -0.0002      0.0002      0.0000      0.0000      0.0000
         6         0.0007     -0.0003      0.0000      0.0000      0.0000
         7         0.5763     -0.9356      0.0000      1.2074      0.1117
         8        -0.9356     -0.5762      0.0000      1.2074      0.1117
         9         0.0000     -0.0001      0.0000      0.0000      0.0000
        10         0.0001      0.0000      0.0000      0.0000      0.0000
        11         0.0000      0.0000      0.0000      0.0000      0.0000
        12        -1.4620      0.6705      0.0000      2.5871      0.2684
        13        -0.6705     -1.4620      0.0000      2.5871      0.2684
        14         0.0000     -0.0001      0.0000      0.0000      0.0000
        15         0.0001      0.0000      0.0000      0.0000      0.0000
        16         0.0000      0.0000      0.0000      0.0000      0.0000
        17         0.0000      0.0000      0.0000      0.0000      0.0000
        18         0.0000      0.0000      0.0000      0.0000      0.0000
        19         0.0000      0.0000      0.0000      0.0000      0.0000
        20         0.0000      0.0000      0.0000      0.0000      0.0000
        21         0.0000      0.0000      0.0000      0.0000      0.0000
        22         0.0000      0.0000      0.0000      0.0000      0.0000
        23         0.0000      0.0000      0.0000      0.0000      0.0000
        24         0.0000      0.0000      0.1506      0.0227      0.0030
        25        -0.0001      0.0001      0.0000      0.0000      0.0000
        26         0.4307     -0.7230      0.0000      0.7082      0.0949
        27        -0.7230     -0.4307      0.0000      0.7082      0.0949
        28         0.0000      0.0000     -0.0174      0.0003      0.0000
        29         0.0000      0.0000      0.2977      0.0886      0.0120
        30         0.0000      0.0000      0.0000      0.0000      0.0000
        31         0.0000      0.0000     -0.0001      0.0000      0.0000
[...]
    10  C   -0.059879  -0.047725   0.444941   4.764603  -0.005741  -0.001059
    11  N   -0.000043  -0.000032   0.000150  -0.005741   7.348945   0.337056
    12  C    0.000246  -0.000480   0.006906  -0.001059   0.337056   4.764644
    13  C   -0.000006   0.000004  -0.000190   0.006907  -0.118248   0.444905
    14  C    0.000000   0.000000   0.000004  -0.000480  -0.118225  -0.047743
    15  C   -0.000003   0.000000  -0.000006   0.000247   0.337204  -0.059879
    16  N   -0.000026   0.000000   0.000000  -0.000026  -0.022963  -0.000043
    17  C   -0.000001   0.000000   0.000000   0.000007  -0.005741   0.000246
    18  C    0.000000   0.000000   0.000000   0.000000   0.000150  -0.000006
    19  C    0.000000   0.000000   0.000000   0.000000  -0.000032   0.000000
    20  C    0.000007   0.000000   0.000000  -0.000001  -0.000043  -0.000003
    21  N   -0.005741   0.000150  -0.000032  -0.000043   0.001248  -0.000026
    22  C    0.000246  -0.000006   0.000000  -0.000003  -0.000026  -0.000001
    23  C   -0.000480   0.000004   0.000000   0.000000   0.000000   0.000000
    24  C    0.006906  -0.000190   0.000004  -0.000006   0.000000   0.000000
    25  C   -0.001059   0.006907  -0.000480   0.000247  -0.000026   0.000007
    26  H    0.000000   0.000000   0.000000   0.000002   0.005760   0.002245
    27  H    0.000000   0.000000   0.000004   0.000077   0.005757  -0.031879
    28  H   -0.000156   0.000413  -0.006086  -0.040034   0.004216  -0.040040
    29  H    0.002245  -0.026048   0.344937  -0.031881   0.000003   0.000077
    30  H   -0.031879   0.344939  -0.026040   0.002244   0.000000   0.000002
    31  H   -0.040040  -0.006080   0.000413  -0.000156   0.000000   0.000000
    32  H    0.000077   0.000004   0.000000   0.000000   0.000000   0.000000
    33  H    0.000002   0.000000   0.000000   0.000000   0.000000   0.000000
    34  H    0.000000   0.000000   0.000000   0.000000   0.000000   0.000000
    35  H    0.000000   0.000000   0.000000   0.000000   0.000000   0.000000
    36  H    0.000000   0.000000   0.000000   0.000000   0.000003   0.000000
    37  H    0.000000   0.000000   0.000000   0.000000   0.004217  -0.000156
             13         14         15         16         17         18
     1  Mg   0.002842   0.002838  -0.006367   0.155508  -0.006405   0.002842
     2  C    0.000000   0.000000   0.000000   0.000038   0.000000   0.000000
     3  C   -0.039576   0.009925   0.006281   0.000037  -0.000006   0.000000
     4  C    0.009921  -0.039555   0.376700  -0.075657   0.376691  -0.039575
     5  C    0.000000   0.000000  -0.000006  -0.075653   0.006285   0.009921
     6  N    0.000150  -0.000032  -0.000043   0.001248  -0.000026   0.000000
     7  C   -0.000006   0.000000  -0.000003  -0.000026  -0.000001   0.000000
     8  C    0.000004   0.000000   0.000000   0.000000   0.000000   0.000000
     9  C   -0.000190   0.000004  -0.000006   0.000000   0.000000   0.000000
    10  C    0.006907  -0.000480   0.000247  -0.000026   0.000007   0.000000
    11  N   -0.118248  -0.118225   0.337204  -0.022963  -0.005741   0.000150
    12  C    0.444905  -0.047743  -0.059879  -0.000043   0.000246  -0.000006
    13  C    5.092477   0.484616  -0.047726  -0.000032  -0.000480   0.000004
    14  C    0.484616   5.092416   0.444940   0.000150   0.006906  -0.000190
    15  C   -0.047726   0.444940   4.764608  -0.005741  -0.001060   0.006907
    16  N   -0.000032   0.000150  -0.005741   7.348943   0.337051  -0.118248
    17  C   -0.000480   0.006906  -0.001060   0.337051   4.764650   0.444905
    18  C    0.000004  -0.000190   0.006907  -0.118248   0.444905   5.092479
    19  C    0.000000   0.000004  -0.000480  -0.118226  -0.047745   0.484615
    20  C    0.000000  -0.000006   0.000247   0.337210  -0.059879  -0.047725
    21  N    0.000000   0.000000  -0.000026  -0.022964  -0.000043  -0.000032
    22  C    0.000000   0.000000   0.000007  -0.005741   0.000246  -0.000480
    23  C    0.000000   0.000000   0.000000   0.000150  -0.000006   0.000004
    24  C    0.000000   0.000000   0.000000  -0.000032   0.000000   0.000000
    25  C    0.000000   0.000000  -0.000001  -0.000043  -0.000003   0.000000
    26  H   -0.026048   0.344937  -0.031881   0.000003   0.000077   0.000004
    27  H    0.344939  -0.026040   0.002244   0.000000   0.000002   0.000000
    28  H   -0.006080   0.000413  -0.000156   0.000000   0.000000   0.000000
    29  H    0.000004   0.000000   0.000000   0.000000   0.000000   0.000000
    30  H    0.000000   0.000000   0.000000   0.000000   0.000000   0.000000
    31  H    0.000000   0.000000   0.000000   0.000000   0.000000   0.000000
    32  H    0.000000   0.000000   0.000000   0.000000   0.000000   0.000000
    33  H    0.000000   0.000000   0.000000   0.000003   0.000000   0.000000
    34  H    0.000000   0.000000   0.000000   0.004217  -0.000156   0.000413
    35  H    0.000000   0.000000   0.000002   0.005760   0.002245  -0.026048
    36  H    0.000000   0.000004   0.000077   0.005757  -0.031879   0.344940
    37  H    0.000413  -0.006086  -0.040035   0.004216  -0.040040  -0.006080
             19         20         21         22         23         24
     1  Mg   0.002838  -0.006366   0.155508  -0.006404   0.002842   0.002838
     2  C    0.000000  -0.000006  -0.075652   0.006285   0.009921  -0.039554
     3  C    0.000000   0.000000   0.000038   0.000000   0.000000   0.000000
     4  C    0.009925   0.006280   0.000037  -0.000006   0.000000   0.000000
     5  C   -0.039556   0.376698  -0.075656   0.376691  -0.039576   0.009925
     6  N    0.000000  -0.000026  -0.022963  -0.000043  -0.000032   0.000150
     7  C    0.000000   0.000007  -0.005741   0.000246  -0.000480   0.006906
     8  C    0.000000   0.000000   0.000150  -0.000006   0.000004  -0.000190
     9  C    0.000000   0.000000  -0.000032   0.000000   0.000000   0.000004
    10  C    0.000000  -0.000001  -0.000043  -0.000003   0.000000  -0.000006
    11  N   -0.000032  -0.000043   0.001248  -0.000026   0.000000   0.000000
    12  C    0.000000  -0.000003  -0.000026  -0.000001   0.000000   0.000000
    13  C    0.000000   0.000000   0.000000   0.000000   0.000000   0.000000
    14  C    0.000004  -0.000006   0.000000   0.000000   0.000000   0.000000
    15  C   -0.000480   0.000247  -0.000026   0.000007   0.000000   0.000000
    16  N   -0.118226   0.337210  -0.022964  -0.005741   0.000150  -0.000032
    17  C   -0.047745  -0.059879  -0.000043   0.000246  -0.000006   0.000000
    18  C    0.484615  -0.047725  -0.000032  -0.000480   0.000004   0.000000
    19  C    5.092416   0.444942   0.000150   0.006906  -0.000190   0.000004
    20  C    0.444942   4.764603  -0.005741  -0.001058   0.006907  -0.000480
    21  N    0.000150  -0.005741   7.348947   0.337055  -0.118248  -0.118225
    22  C    0.006906  -0.001058   0.337055   4.764644   0.444907  -0.047743
    23  C   -0.000190   0.006907  -0.118248   0.444907   5.092478   0.484614
    24  C    0.000004  -0.000480  -0.118225  -0.047743   0.484614   5.092417
    25  C   -0.000006   0.000247   0.337203  -0.059879  -0.047725   0.444943
    26  H    0.000000   0.000000   0.000000   0.000000   0.000000   0.000000
    27  H    0.000000   0.000000   0.000000   0.000000   0.000000   0.000000
    28  H    0.000000   0.000000   0.000000   0.000000   0.000000   0.000000
    29  H    0.000000   0.000000   0.000000   0.000000   0.000000   0.000000
    30  H    0.000000   0.000000   0.000003   0.000000   0.000000   0.000004
    31  H    0.000000   0.000000   0.004217  -0.000156   0.000413  -0.006086
    32  H    0.000000   0.000002   0.005760   0.002245  -0.026048   0.344937
    33  H    0.000004   0.000077   0.005757  -0.031879   0.344939  -0.026040
    34  H   -0.006086  -0.040035   0.004216  -0.040040  -0.006080   0.000413
    35  H    0.344937  -0.031881   0.000003   0.000077   0.000004   0.000000
    36  H   -0.026040   0.002244   0.000000   0.000002   0.000000   0.000000
    37  H    0.000413  -0.000156   0.000000   0.000000   0.000000   0.000000
             25         26         27         28         29         30
     1  Mg  -0.006367   0.000054   0.000054  -0.000202   0.000054   0.000054
     2  C    0.376699   0.000000   0.000000   0.000005  -0.000181  -0.002081
     3  C   -0.000006  -0.000181  -0.002081   0.360088  -0.002084  -0.000181
     4  C    0.000000  -0.002084  -0.000181   0.000005   0.000000   0.000000
     5  C    0.006281   0.000000   0.000000   0.000000   0.000000   0.000000
     6  N   -0.005741   0.000000   0.000003   0.004217   0.005760   0.005757
     7  C   -0.001059   0.000000   0.000000  -0.000156   0.002245  -0.031879
     8  C    0.006907   0.000000   0.000000   0.000413  -0.026048   0.344939
     9  C   -0.000480   0.000000   0.000004  -0.006086   0.344937  -0.026040
    10  C    0.000247   0.000002   0.000077  -0.040034  -0.031881   0.002244
    11  N   -0.000026   0.005760   0.005757   0.004216   0.000003   0.000000
    12  C    0.000007   0.002245  -0.031879  -0.040040   0.000077   0.000002
    13  C    0.000000  -0.026048   0.344939  -0.006080   0.000004   0.000000
    14  C    0.000000   0.344937  -0.026040   0.000413   0.000000   0.000000
    15  C   -0.000001  -0.031881   0.002244  -0.000156   0.000000   0.000000
    16  N   -0.000043   0.000003   0.000000   0.000000   0.000000   0.000000
    17  C   -0.000003   0.000077   0.000002   0.000000   0.000000   0.000000
    18  C    0.000000   0.000004   0.000000   0.000000   0.000000   0.000000
    19  C   -0.000006   0.000000   0.000000   0.000000   0.000000   0.000000
    20  C    0.000247   0.000000   0.000000   0.000000   0.000000   0.000000
    21  N    0.337203   0.000000   0.000000   0.000000   0.000000   0.000003
    22  C   -0.059879   0.000000   0.000000   0.000000   0.000000   0.000000
    23  C   -0.047725   0.000000   0.000000   0.000000   0.000000   0.000000
    24  C    0.444943   0.000000   0.000000   0.000000   0.000000   0.000004
    25  C    4.764607   0.000000   0.000000   0.000000   0.000002   0.000077
    26  H    0.000000   0.567414  -0.000404  -0.000005   0.000000   0.000000
    27  H    0.000000  -0.000404   0.567396   0.002414   0.000000   0.000000
    28  H    0.000000  -0.000005   0.002414   0.588525   0.002415  -0.000005
    29  H    0.000002   0.000000   0.000000   0.002415   0.567414  -0.000404
    30  H    0.000077   0.000000   0.000000  -0.000005  -0.000404   0.567396
    31  H   -0.040035   0.000000   0.000000   0.000000  -0.000005   0.002414
    32  H   -0.031881   0.000000   0.000000   0.000000   0.000000   0.000000
    33  H    0.002244   0.000000   0.000000   0.000000   0.000000   0.000000
    34  H   -0.000156   0.000000   0.000000   0.000000   0.000000   0.000000
    35  H    0.000000   0.000000   0.000000   0.000000   0.000000   0.000000
    36  H    0.000000   0.000000   0.000000   0.000000   0.000000   0.000000
    37  H    0.000000   0.002415  -0.000005   0.000000   0.000000   0.000000
             31         32         33         34         35         36
     1  Mg  -0.000202   0.000054   0.000054  -0.000202   0.000054   0.000054
     2  C    0.360088  -0.002084  -0.000181   0.000005   0.000000   0.000000
     3  C    0.000005   0.000000   0.000000   0.000000   0.000000   0.000000
     4  C    0.000000   0.000000   0.000000   0.000005  -0.000181  -0.002081
     5  C    0.000005  -0.000181  -0.002081   0.360088  -0.002084  -0.000181
     6  N    0.004216   0.000003   0.000000   0.000000   0.000000   0.000000
     7  C   -0.040040   0.000077   0.000002   0.000000   0.000000   0.000000
     8  C   -0.006080   0.000004   0.000000   0.000000   0.000000   0.000000
     9  C    0.000413   0.000000   0.000000   0.000000   0.000000   0.000000
    10  C   -0.000156   0.000000   0.000000   0.000000   0.000000   0.000000
    11  N    0.000000   0.000000   0.000000   0.000000   0.000000   0.000003
    12  C    0.000000   0.000000   0.000000   0.000000   0.000000   0.000000
    13  C    0.000000   0.000000   0.000000   0.000000   0.000000   0.000000
    14  C    0.000000   0.000000   0.000000   0.000000   0.000000   0.000004
    15  C    0.000000   0.000000   0.000000   0.000000   0.000002   0.000077
    16  N    0.000000   0.000000   0.000003   0.004217   0.005760   0.005757
    17  C    0.000000   0.000000   0.000000  -0.000156   0.002245  -0.031879
    18  C    0.000000   0.000000   0.000000   0.000413  -0.026048   0.344940
    19  C    0.000000   0.000000   0.000004  -0.006086   0.344937  -0.026040
    20  C    0.000000   0.000002   0.000077  -0.040035  -0.031881   0.002244
    21  N    0.004217   0.005760   0.005757   0.004216   0.000003   0.000000
    22  C   -0.000156   0.002245  -0.031879  -0.040040   0.000077   0.000002
    23  C    0.000413  -0.026048   0.344939  -0.006080   0.000004   0.000000
    24  C   -0.006086   0.344937  -0.026040   0.000413   0.000000   0.000000
    25  C   -0.040035  -0.031881   0.002244  -0.000156   0.000000   0.000000
    26  H    0.000000   0.000000   0.000000   0.000000   0.000000   0.000000
    27  H    0.000000   0.000000   0.000000   0.000000   0.000000   0.000000
    28  H    0.000000   0.000000   0.000000   0.000000   0.000000   0.000000
    29  H   -0.000005   0.000000   0.000000   0.000000   0.000000   0.000000
    30  H    0.002414   0.000000   0.000000   0.000000   0.000000   0.000000
    31  H    0.588525   0.002415  -0.000005   0.000000   0.000000   0.000000
    32  H    0.002415   0.567414  -0.000404  -0.000005   0.000000   0.000000
    33  H   -0.000005  -0.000404   0.567397   0.002414   0.000000   0.000000
    34  H    0.000000  -0.000005   0.002414   0.588525   0.002415  -0.000005
    35  H    0.000000   0.000000   0.000000   0.002415   0.567414  -0.000404
    36  H    0.000000   0.000000   0.000000  -0.000005  -0.000404   0.567396
    37  H    0.000000   0.000000   0.000000   0.000000  -0.000005   0.002414
             37
     1  Mg  -0.000202
     2  C    0.000000
     3  C    0.000005
     4  C    0.360089
     5  C    0.000005
     6  N    0.000000
     7  C    0.000000
     8  C    0.000000
     9  C    0.000000
    10  C    0.000000
    11  N    0.004217
    12  C   -0.000156
    13  C    0.000413
    14  C   -0.006086
    15  C   -0.040035
    16  N    0.004216
    17  C   -0.040040
    18  C   -0.006080
    19  C    0.000413
    20  C   -0.000156
    21  N    0.000000
    22  C    0.000000
    23  C    0.000000
    24  C    0.000000
    25  C    0.000000
    26  H    0.002415
    27  H   -0.000005
    28  H    0.000000
    29  H    0.000000
    30  H    0.000000
    31  H    0.000000
    32  H    0.000000
    33  H    0.000000
    34  H    0.000000
    35  H   -0.000005
    36  H    0.002414
    37  H    0.588524
 Mulliken atomic charges:
              1
     1  Mg   1.185684
     2  C   -0.157471
     3  C   -0.157469
     4  C   -0.157470
     5  C   -0.157470
     6  N   -0.754900
     7  C    0.254155
     8  C   -0.148795
     9  C   -0.148797
    10  C    0.253945
    11  N   -0.754900
    12  C    0.254155
    13  C   -0.148796
    14  C   -0.148796
    15  C    0.253945
    16  N   -0.754898
    17  C    0.254157
    18  C   -0.148799
    19  C   -0.148794
    20  C    0.253942
    21  N   -0.754901
    22  C    0.254154
    23  C   -0.148796
    24  C   -0.148798
    25  C    0.253947
    26  H    0.137692
    27  H    0.137698
    28  H    0.130052
    29  H    0.137692
    30  H    0.137698
    31  H    0.130052
    32  H    0.137692
    33  H    0.137697
    34  H    0.130052
    35  H    0.137692
    36  H    0.137697
    37  H    0.130052
 Sum of Mulliken atomic charges =   0.00000
 Mulliken charges with hydrogens summed into heavy atoms:
              1
     1  Mg   1.185684
     2  C   -0.027419
     3  C   -0.027417
     4  C   -0.027417
     5  C   -0.027417
     6  N   -0.754900
     7  C    0.254155
     8  C   -0.011098
     9  C   -0.011104
    10  C    0.253945
    11  N   -0.754900
    12  C    0.254155
    13  C   -0.011098
    14  C   -0.011104
    15  C    0.253945
    16  N   -0.754898
    17  C    0.254157
    18  C   -0.011102
    19  C   -0.011102
    20  C    0.253942
    21  N   -0.754901
    22  C    0.254154
    23  C   -0.011099
    24  C   -0.011106
    25  C    0.253947
 Sum of Mulliken charges with hydrogens summed into heavy atoms =   0.00000
 Electronic spatial extent (au):  <R**2>=           7693.9820
 Charge=              0.0000 electrons
 Dipole moment (field-independent basis, Debye):
    X=              0.0000    Y=              0.0000    Z=             -0.0001  Tot=              0.0001
 Quadrupole moment (field-independent basis, Debye-Ang):
   XX=           -123.8471   YY=           -123.8471   ZZ=           -150.9650
   XY=              0.0000   XZ=              0.0002   YZ=              0.0000
 Traceless Quadrupole moment (field-independent basis, Debye-Ang):
   XX=              9.0393   YY=              9.0393   ZZ=            -18.0786
   XY=              0.0000   XZ=              0.0002   YZ=              0.0000
 Octapole moment (field-independent basis, Debye-Ang**2):
  XXX=              0.0002  YYY=              0.0002  ZZZ=             -0.0020  XYY=              0.0003
  XXY=              0.0000  XXZ=              0.0058  XZZ=              0.0001  YZZ=              0.0000
  YYZ=              0.0022  XYZ=             -0.0009
 Hexadecapole moment (field-independent basis, Debye-Ang**3):
 XXXX=          -4670.8804 YYYY=          -4670.8607 ZZZZ=           -156.6814 XXXY=             24.2948
 XXXZ=             -0.0095 YYYX=            -24.2944 YYYZ=             -0.0108 ZZZX=             -0.0153
 ZZZY=             -0.0097 XXYY=          -1613.9735 XXZZ=           -997.6617 YYZZ=           -997.6575
 XXYZ=              0.0002 YYXZ=             -0.0007 ZZXY=              0.0000
 N-N= 2.104943404015D+03 E-N=-6.986562225851D+03  KE= 1.182197896237D+03
 Leave Link  601 at Fri Jan  4 15:18:08 2013, MaxMem= 1022361600 cpu:       1.5
 (Enter /export/home/haor/soft/gaussian/g09/l9999.exe)
 1\1\GINC-COMPUTE-10-4\SP\RB3LYP TD-FC\6-31G\C20H12Mg1N4\HAOR\04-Jan-20
 13\0\\#p b3lyp/6-31g td(singlets,nstates=40,root=1)\\title\\0,1\Mg,0,0
 .000001,-0.000001,-0.000116\C,0,0.467244,-3.422481,-0.000041\C,0,3.422
 495,0.467243,0.000044\C,0,-0.467241,3.422479,-0.000031\C,0,-3.422498,-
 0.467242,0.000018\N,0,1.643213,-1.248461,-0.000034\C,0,1.623173,-2.635
 013,-0.000038\C,0,2.988086,-3.130429,0.000034\C,0,3.816773,-2.0396,0.0
 00105\C,0,2.973647,-0.857458,0.000034\N,0,1.248473,1.643203,-0.000037\
 C,0,2.635021,1.623171,0.000011\C,0,3.130432,2.988087,0.00007\C,0,2.039
 599,3.816769,0.000061\C,0,0.85746,2.973637,-0.000013\N,0,-1.643217,1.2
 48458,-0.000029\C,0,-1.623171,2.635005,-0.000029\C,0,-2.988081,3.13043
 ,-0.000006\C,0,-3.816774,2.039603,0.000105\C,0,-2.973655,0.857459,0.00
 0025\N,0,-1.24847,-1.643201,-0.000045\C,0,-2.635024,-1.623171,-0.00002
 7\C,0,-3.130431,-2.988083,-0.00005\C,0,-2.039595,-3.816767,0.000038\C,
 0,-0.85746,-2.973637,-0.00003\H,0,2.028113,4.89751,0.000084\H,0,4.1747
 03,3.266726,0.000111\H,0,4.498438,0.614085,0.000071\H,0,4.897515,-2.02
 8119,0.000185\H,0,3.266721,-4.174701,0.000062\H,0,0.614082,-4.498425,-
 0.000024\H,0,-2.028112,-4.897508,0.000072\H,0,-4.1747,-3.266727,-0.000
 072\H,0,-4.498442,-0.614085,0.000068\H,0,-4.897516,2.02813,0.000188\H,
 0,-3.266713,4.174703,-0.000002\H,0,-0.614086,4.498421,-0.000024\\Versi
 on=EM64L-G09RevB.01\State=1-A\HF=-1188.3320542\RMSD=2.538e-09\PG=C01 [
 X(C20H12Mg1N4)]\\@


 The earth never tires,
 The earth is rude, silent, incomprehensible at first,
 Nature is rude and incomprehensible at first,
 Be not discouraged, keep on,
 There are divine things well envelop'd,
 I swear to you there are divine things more beautiful than words can tell.
                                 -- Walt Whitman
 Job cpu time:  0 days  3 hours  9 minutes  4.5 seconds.
 File lengths (MBytes):  RWF=    755 Int=      0 D2E=      0 Chk=     99 Scr=      1
 Normal termination of Gaussian 09 at Fri Jan  4 15:18:08 2013.
