Title Card Required                                                     
Freq      RB3LYP                                                      6-311++G(2df,p)     
Number of atoms                            I               15
Info1-9                                    I   N=           9
          27          24           0           0           0         100
           6          18        -502
Charge                                     I                0
Multiplicity                               I                1
Number of electrons                        I               72
Number of alpha electrons                  I               36
Number of beta electrons                   I               36
Number of basis functions                  I              375
Number of independent functions            I              374
Number of point charges in /Mol/           I                0
Number of translation vectors              I                0
Atomic numbers                             I   N=          15
           6           6           6           6           6           6
           1           1           1           1           8           1
           7           8           8
Nuclear charges                            R   N=          15
  6.00000000E+00  6.00000000E+00  6.00000000E+00  6.00000000E+00  6.00000000E+00
  6.00000000E+00  1.00000000E+00  1.00000000E+00  1.00000000E+00  1.00000000E+00
  8.00000000E+00  1.00000000E+00  7.00000000E+00  8.00000000E+00  8.00000000E+00
Current cartesian coordinates              R   N=          45
 -4.81338190E+00 -3.14552474E-01  8.31479498E-05 -3.59018674E+00 -2.66265436E+00
  1.32280829E-05 -9.91871894E-01 -2.74763345E+00 -7.93684976E-05  4.07417395E-01
 -5.02412038E-01 -1.05824663E-04 -8.07944849E-01  1.87455730E+00 -1.88972613E-06
 -3.45378631E+00  1.90843253E+00  7.55890453E-05 -6.85881580E+00 -2.35495781E-01
  1.58736995E-04 -4.67359886E+00 -4.39574865E+00  1.88972613E-05  1.92071764E-02
 -4.52117733E+00 -1.54957543E-04 -4.38249411E+00  3.73043277E+00  1.58736995E-04
  4.00655955E-01  4.08826186E+00  9.63760328E-05  2.22147511E+00  3.72233907E+00
  1.81413709E-04  3.13020095E+00 -6.82839310E-01 -2.89128098E-04  4.37962173E+00
  1.31455397E+00 -3.40150704E-05  4.12739242E+00 -2.75968046E+00  1.54957543E-04
Force Field                                I                0
Int Atom Types                             I   N=          15
           0           0           0           0           0           0
           0           0           0           0           0           0
           0           0           0
MM charges                                 R   N=          15
  0.00000000E+00  0.00000000E+00  0.00000000E+00  0.00000000E+00  0.00000000E+00
  0.00000000E+00  0.00000000E+00  0.00000000E+00  0.00000000E+00  0.00000000E+00
  0.00000000E+00  0.00000000E+00  0.00000000E+00  0.00000000E+00  0.00000000E+00
Integer atomic weights                     I   N=          15
          12          12          12          12          12          12
           1           1           1           1          16           1
          14          16          16
Real atomic weights                        R   N=          15
  1.20000000E+01  1.20000000E+01  1.20000000E+01  1.20000000E+01  1.20000000E+01
  1.20000000E+01  1.00782504E+00  1.00782504E+00  1.00782504E+00  1.00782504E+00
  1.59949146E+01  1.00782504E+00  1.40030740E+01  1.59949146E+01  1.59949146E+01
Atom fragment info                         I   N=          15
           0           0           0           0           0           0
           0           0           0           0           0           0
           0           0           0
Atom residue num                           I   N=          15
           0           0           0           0           0           0
           0           0           0           0           0           0
           0           0           0
Nuclear spins                              I   N=          15
           0           0           0           0           0           0
           1           1           1           1           0           1
           2           0           0
Nuclear ZEff                               R   N=          15
 -3.60000000E+00 -3.60000000E+00 -3.60000000E+00 -3.60000000E+00 -3.60000000E+00
 -3.60000000E+00 -1.00000000E+00 -1.00000000E+00 -1.00000000E+00 -1.00000000E+00
 -5.60000000E+00 -1.00000000E+00 -4.55000000E+00 -5.60000000E+00 -5.60000000E+00
Nuclear QMom                               R   N=          15
  0.00000000E+00  0.00000000E+00  0.00000000E+00  0.00000000E+00  0.00000000E+00
  0.00000000E+00  0.00000000E+00  0.00000000E+00  0.00000000E+00  0.00000000E+00
  0.00000000E+00  0.00000000E+00  2.04400000E+00  0.00000000E+00  0.00000000E+00
Nuclear GFac                               R   N=          15
  0.00000000E+00  0.00000000E+00  0.00000000E+00  0.00000000E+00  0.00000000E+00
  0.00000000E+00  2.79284600E+00  2.79284600E+00  2.79284600E+00  2.79284600E+00
  0.00000000E+00  2.79284600E+00  4.03761000E-01  0.00000000E+00  0.00000000E+00
MicOpt                                     I   N=          15
          -1          -1          -1          -1          -1          -1
          -1          -1          -1          -1          -1          -1
          -1          -1          -1
Number of contracted shells                I              105
Number of primitive shells                 I              185
Pure/Cartesian d shells                    I                0
Pure/Cartesian f shells                    I                0
Highest angular momentum                   I                3
Largest degree of contraction              I                6
Shell types                                I   N=         105
           0          -1          -1          -1          -1          -2
          -2          -3           0          -1          -1          -1
          -1          -2          -2          -3           0          -1
          -1          -1          -1          -2          -2          -3
           0          -1          -1          -1          -1          -2
          -2          -3           0          -1          -1          -1
          -1          -2          -2          -3           0          -1
          -1          -1          -1          -2          -2          -3
           0           0           0           0           1           0
           0           0           0           1           0           0
           0           0           1           0           0           0
           0           1           0          -1          -1          -1
          -1          -2          -2          -3           0           0
           0           0           1           0          -1          -1
          -1          -1          -2          -2          -3           0
          -1          -1          -1          -1          -2          -2
          -3           0          -1          -1          -1          -1
          -2          -2          -3
Number of primitives per shell             I   N=         105
           6           3           1           1           1           1
           1           1           6           3           1           1
           1           1           1           1           6           3
           1           1           1           1           1           1
           6           3           1           1           1           1
           1           1           6           3           1           1
           1           1           1           1           6           3
           1           1           1           1           1           1
           3           1           1           1           1           3
           1           1           1           1           3           1
           1           1           1           3           1           1
           1           1           6           3           1           1
           1           1           1           1           3           1
           1           1           1           6           3           1
           1           1           1           1           1           6
           3           1           1           1           1           1
           1           6           3           1           1           1
           1           1           1
Shell to atom map                          I   N=         105
           1           1           1           1           1           1
           1           1           2           2           2           2
           2           2           2           2           3           3
           3           3           3           3           3           3
           4           4           4           4           4           4
           4           4           5           5           5           5
           5           5           5           5           6           6
           6           6           6           6           6           6
           7           7           7           7           7           8
           8           8           8           8           9           9
           9           9           9          10          10          10
          10          10          11          11          11          11
          11          11          11          11          12          12
          12          12          12          13          13          13
          13          13          13          13          13          14
          14          14          14          14          14          14
          14          15          15          15          15          15
          15          15          15
Primitive exponents                        R   N=         185
  4.56324000E+03  6.82024000E+02  1.54973000E+02  4.44553000E+01  1.30290000E+01
  1.82773000E+00  2.09642000E+01  4.80331000E+00  1.45933000E+00  4.83456000E-01
  1.45585000E-01  4.38000000E-02  1.25200000E+00  3.13000000E-01  8.00000000E-01
  4.56324000E+03  6.82024000E+02  1.54973000E+02  4.44553000E+01  1.30290000E+01
  1.82773000E+00  2.09642000E+01  4.80331000E+00  1.45933000E+00  4.83456000E-01
  1.45585000E-01  4.38000000E-02  1.25200000E+00  3.13000000E-01  8.00000000E-01
  4.56324000E+03  6.82024000E+02  1.54973000E+02  4.44553000E+01  1.30290000E+01
  1.82773000E+00  2.09642000E+01  4.80331000E+00  1.45933000E+00  4.83456000E-01
  1.45585000E-01  4.38000000E-02  1.25200000E+00  3.13000000E-01  8.00000000E-01
  4.56324000E+03  6.82024000E+02  1.54973000E+02  4.44553000E+01  1.30290000E+01
  1.82773000E+00  2.09642000E+01  4.80331000E+00  1.45933000E+00  4.83456000E-01
  1.45585000E-01  4.38000000E-02  1.25200000E+00  3.13000000E-01  8.00000000E-01
  4.56324000E+03  6.82024000E+02  1.54973000E+02  4.44553000E+01  1.30290000E+01
  1.82773000E+00  2.09642000E+01  4.80331000E+00  1.45933000E+00  4.83456000E-01
  1.45585000E-01  4.38000000E-02  1.25200000E+00  3.13000000E-01  8.00000000E-01
  4.56324000E+03  6.82024000E+02  1.54973000E+02  4.44553000E+01  1.30290000E+01
  1.82773000E+00  2.09642000E+01  4.80331000E+00  1.45933000E+00  4.83456000E-01
  1.45585000E-01  4.38000000E-02  1.25200000E+00  3.13000000E-01  8.00000000E-01
  3.38650000E+01  5.09479000E+00  1.15879000E+00  3.25840000E-01  1.02741000E-01
  3.60000000E-02  7.50000000E-01  3.38650000E+01  5.09479000E+00  1.15879000E+00
  3.25840000E-01  1.02741000E-01  3.60000000E-02  7.50000000E-01  3.38650000E+01
  5.09479000E+00  1.15879000E+00  3.25840000E-01  1.02741000E-01  3.60000000E-02
  7.50000000E-01  3.38650000E+01  5.09479000E+00  1.15879000E+00  3.25840000E-01
  1.02741000E-01  3.60000000E-02  7.50000000E-01  8.58850000E+03  1.29723000E+03
  2.99296000E+02  8.73771000E+01  2.56789000E+01  3.74004000E+00  4.21175000E+01
  9.62837000E+00  2.85332000E+00  9.05661000E-01  2.55611000E-01  8.45000000E-02
  2.58400000E+00  6.46000000E-01  1.40000000E+00  3.38650000E+01  5.09479000E+00
  1.15879000E+00  3.25840000E-01  1.02741000E-01  3.60000000E-02  7.50000000E-01
  6.29348000E+03  9.49044000E+02  2.18776000E+02  6.36916000E+01  1.88282000E+01
  2.72023000E+00  3.06331000E+01  7.02614000E+00  2.11205000E+00  6.84009000E-01
  2.00878000E-01  6.39000000E-02  1.82600000E+00  4.56500000E-01  1.00000000E+00
  8.58850000E+03  1.29723000E+03  2.99296000E+02  8.73771000E+01  2.56789000E+01
  3.74004000E+00  4.21175000E+01  9.62837000E+00  2.85332000E+00  9.05661000E-01
  2.55611000E-01  8.45000000E-02  2.58400000E+00  6.46000000E-01  1.40000000E+00
  8.58850000E+03  1.29723000E+03  2.99296000E+02  8.73771000E+01  2.56789000E+01
  3.74004000E+00  4.21175000E+01  9.62837000E+00  2.85332000E+00  9.05661000E-01
  2.55611000E-01  8.45000000E-02  2.58400000E+00  6.46000000E-01  1.40000000E+00
Contraction coefficients                   R   N=         185
  1.96665025E-03  1.52306019E-02  7.61269097E-02  2.60801033E-01  6.16462078E-01
  2.21006028E-01  1.14660081E-01  9.19999648E-01 -3.03068213E-03  1.00000000E+00
  1.00000000E+00  1.00000000E+00  1.00000000E+00  1.00000000E+00  1.00000000E+00
  1.96665025E-03  1.52306019E-02  7.61269097E-02  2.60801033E-01  6.16462078E-01
  2.21006028E-01  1.14660081E-01  9.19999648E-01 -3.03068213E-03  1.00000000E+00
  1.00000000E+00  1.00000000E+00  1.00000000E+00  1.00000000E+00  1.00000000E+00
  1.96665025E-03  1.52306019E-02  7.61269097E-02  2.60801033E-01  6.16462078E-01
  2.21006028E-01  1.14660081E-01  9.19999648E-01 -3.03068213E-03  1.00000000E+00
  1.00000000E+00  1.00000000E+00  1.00000000E+00  1.00000000E+00  1.00000000E+00
  1.96665025E-03  1.52306019E-02  7.61269097E-02  2.60801033E-01  6.16462078E-01
  2.21006028E-01  1.14660081E-01  9.19999648E-01 -3.03068213E-03  1.00000000E+00
  1.00000000E+00  1.00000000E+00  1.00000000E+00  1.00000000E+00  1.00000000E+00
  1.96665025E-03  1.52306019E-02  7.61269097E-02  2.60801033E-01  6.16462078E-01
  2.21006028E-01  1.14660081E-01  9.19999648E-01 -3.03068213E-03  1.00000000E+00
  1.00000000E+00  1.00000000E+00  1.00000000E+00  1.00000000E+00  1.00000000E+00
  1.96665025E-03  1.52306019E-02  7.61269097E-02  2.60801033E-01  6.16462078E-01
  2.21006028E-01  1.14660081E-01  9.19999648E-01 -3.03068213E-03  1.00000000E+00
  1.00000000E+00  1.00000000E+00  1.00000000E+00  1.00000000E+00  1.00000000E+00
  2.54938145E-02  1.90373109E-01  8.52161486E-01  1.00000000E+00  1.00000000E+00
  1.00000000E+00  1.00000000E+00  2.54938145E-02  1.90373109E-01  8.52161486E-01
  1.00000000E+00  1.00000000E+00  1.00000000E+00  1.00000000E+00  2.54938145E-02
  1.90373109E-01  8.52161486E-01  1.00000000E+00  1.00000000E+00  1.00000000E+00
  1.00000000E+00  2.54938145E-02  1.90373109E-01  8.52161486E-01  1.00000000E+00
  1.00000000E+00  1.00000000E+00  1.00000000E+00  1.89515008E-03  1.43859006E-02
  7.07320031E-02  2.40001011E-01  5.94797026E-01  2.80802012E-01  1.13889012E-01
  9.20811101E-01 -3.27447036E-03  1.00000000E+00  1.00000000E+00  1.00000000E+00
  1.00000000E+00  1.00000000E+00  1.00000000E+00  2.54938145E-02  1.90373109E-01
  8.52161486E-01  1.00000000E+00  1.00000000E+00  1.00000000E+00  1.00000000E+00
  1.96978815E-03  1.49612859E-02  7.35005308E-02  2.48936766E-01  6.02459433E-01
  2.56201759E-01  1.11906080E-01  9.21666655E-01 -2.56919183E-03  1.00000000E+00
  1.00000000E+00  1.00000000E+00  1.00000000E+00  1.00000000E+00  1.00000000E+00
  1.89515008E-03  1.43859006E-02  7.07320031E-02  2.40001011E-01  5.94797026E-01
  2.80802012E-01  1.13889012E-01  9.20811101E-01 -3.27447036E-03  1.00000000E+00
  1.00000000E+00  1.00000000E+00  1.00000000E+00  1.00000000E+00  1.00000000E+00
  1.89515008E-03  1.43859006E-02  7.07320031E-02  2.40001011E-01  5.94797026E-01
  2.80802012E-01  1.13889012E-01  9.20811101E-01 -3.27447036E-03  1.00000000E+00
  1.00000000E+00  1.00000000E+00  1.00000000E+00  1.00000000E+00  1.00000000E+00
P(S=P) Contraction coefficients            R   N=         185
  0.00000000E+00  0.00000000E+00  0.00000000E+00  0.00000000E+00  0.00000000E+00
  0.00000000E+00  4.02486927E-02  2.37593957E-01  8.15853851E-01  1.00000000E+00
  1.00000000E+00  1.00000000E+00  0.00000000E+00  0.00000000E+00  0.00000000E+00
  0.00000000E+00  0.00000000E+00  0.00000000E+00  0.00000000E+00  0.00000000E+00
  0.00000000E+00  4.02486927E-02  2.37593957E-01  8.15853851E-01  1.00000000E+00
  1.00000000E+00  1.00000000E+00  0.00000000E+00  0.00000000E+00  0.00000000E+00
  0.00000000E+00  0.00000000E+00  0.00000000E+00  0.00000000E+00  0.00000000E+00
  0.00000000E+00  4.02486927E-02  2.37593957E-01  8.15853851E-01  1.00000000E+00
  1.00000000E+00  1.00000000E+00  0.00000000E+00  0.00000000E+00  0.00000000E+00
  0.00000000E+00  0.00000000E+00  0.00000000E+00  0.00000000E+00  0.00000000E+00
  0.00000000E+00  4.02486927E-02  2.37593957E-01  8.15853851E-01  1.00000000E+00
  1.00000000E+00  1.00000000E+00  0.00000000E+00  0.00000000E+00  0.00000000E+00
  0.00000000E+00  0.00000000E+00  0.00000000E+00  0.00000000E+00  0.00000000E+00
  0.00000000E+00  4.02486927E-02  2.37593957E-01  8.15853851E-01  1.00000000E+00
  1.00000000E+00  1.00000000E+00  0.00000000E+00  0.00000000E+00  0.00000000E+00
  0.00000000E+00  0.00000000E+00  0.00000000E+00  0.00000000E+00  0.00000000E+00
  0.00000000E+00  4.02486927E-02  2.37593957E-01  8.15853851E-01  1.00000000E+00
  1.00000000E+00  1.00000000E+00  0.00000000E+00  0.00000000E+00  0.00000000E+00
  0.00000000E+00  0.00000000E+00  0.00000000E+00  0.00000000E+00  0.00000000E+00
  0.00000000E+00  0.00000000E+00  0.00000000E+00  0.00000000E+00  0.00000000E+00
  0.00000000E+00  0.00000000E+00  0.00000000E+00  0.00000000E+00  0.00000000E+00
  0.00000000E+00  0.00000000E+00  0.00000000E+00  0.00000000E+00  0.00000000E+00
  0.00000000E+00  0.00000000E+00  0.00000000E+00  0.00000000E+00  0.00000000E+00
  0.00000000E+00  0.00000000E+00  0.00000000E+00  0.00000000E+00  0.00000000E+00
  0.00000000E+00  0.00000000E+00  0.00000000E+00  0.00000000E+00  3.65113974E-02
  2.37152983E-01  8.19701941E-01  1.00000000E+00  1.00000000E+00  1.00000000E+00
  0.00000000E+00  0.00000000E+00  0.00000000E+00  0.00000000E+00  0.00000000E+00
  0.00000000E+00  0.00000000E+00  0.00000000E+00  0.00000000E+00  0.00000000E+00
  0.00000000E+00  0.00000000E+00  0.00000000E+00  0.00000000E+00  0.00000000E+00
  0.00000000E+00  3.83119186E-02  2.37403116E-01  8.17592398E-01  1.00000000E+00
  1.00000000E+00  1.00000000E+00  0.00000000E+00  0.00000000E+00  0.00000000E+00
  0.00000000E+00  0.00000000E+00  0.00000000E+00  0.00000000E+00  0.00000000E+00
  0.00000000E+00  3.65113974E-02  2.37152983E-01  8.19701941E-01  1.00000000E+00
  1.00000000E+00  1.00000000E+00  0.00000000E+00  0.00000000E+00  0.00000000E+00
  0.00000000E+00  0.00000000E+00  0.00000000E+00  0.00000000E+00  0.00000000E+00
  0.00000000E+00  3.65113974E-02  2.37152983E-01  8.19701941E-01  1.00000000E+00
  1.00000000E+00  1.00000000E+00  0.00000000E+00  0.00000000E+00  0.00000000E+00
Coordinates of each shell                  R   N=         315
 -4.81338190E+00 -3.14552474E-01  8.31479498E-05 -4.81338190E+00 -3.14552474E-01
  8.31479498E-05 -4.81338190E+00 -3.14552474E-01  8.31479498E-05 -4.81338190E+00
 -3.14552474E-01  8.31479498E-05 -4.81338190E+00 -3.14552474E-01  8.31479498E-05
 -4.81338190E+00 -3.14552474E-01  8.31479498E-05 -4.81338190E+00 -3.14552474E-01
  8.31479498E-05 -4.81338190E+00 -3.14552474E-01  8.31479498E-05 -3.59018674E+00
 -2.66265436E+00  1.32280829E-05 -3.59018674E+00 -2.66265436E+00  1.32280829E-05
 -3.59018674E+00 -2.66265436E+00  1.32280829E-05 -3.59018674E+00 -2.66265436E+00
  1.32280829E-05 -3.59018674E+00 -2.66265436E+00  1.32280829E-05 -3.59018674E+00
 -2.66265436E+00  1.32280829E-05 -3.59018674E+00 -2.66265436E+00  1.32280829E-05
 -3.59018674E+00 -2.66265436E+00  1.32280829E-05 -9.91871894E-01 -2.74763345E+00
 -7.93684976E-05 -9.91871894E-01 -2.74763345E+00 -7.93684976E-05 -9.91871894E-01
 -2.74763345E+00 -7.93684976E-05 -9.91871894E-01 -2.74763345E+00 -7.93684976E-05
 -9.91871894E-01 -2.74763345E+00 -7.93684976E-05 -9.91871894E-01 -2.74763345E+00
 -7.93684976E-05 -9.91871894E-01 -2.74763345E+00 -7.93684976E-05 -9.91871894E-01
 -2.74763345E+00 -7.93684976E-05  4.07417395E-01 -5.02412038E-01 -1.05824663E-04
  4.07417395E-01 -5.02412038E-01 -1.05824663E-04  4.07417395E-01 -5.02412038E-01
 -1.05824663E-04  4.07417395E-01 -5.02412038E-01 -1.05824663E-04  4.07417395E-01
 -5.02412038E-01 -1.05824663E-04  4.07417395E-01 -5.02412038E-01 -1.05824663E-04
  4.07417395E-01 -5.02412038E-01 -1.05824663E-04  4.07417395E-01 -5.02412038E-01
 -1.05824663E-04 -8.07944849E-01  1.87455730E+00 -1.88972613E-06 -8.07944849E-01
  1.87455730E+00 -1.88972613E-06 -8.07944849E-01  1.87455730E+00 -1.88972613E-06
 -8.07944849E-01  1.87455730E+00 -1.88972613E-06 -8.07944849E-01  1.87455730E+00
 -1.88972613E-06 -8.07944849E-01  1.87455730E+00 -1.88972613E-06 -8.07944849E-01
  1.87455730E+00 -1.88972613E-06 -8.07944849E-01  1.87455730E+00 -1.88972613E-06
 -3.45378631E+00  1.90843253E+00  7.55890453E-05 -3.45378631E+00  1.90843253E+00
  7.55890453E-05 -3.45378631E+00  1.90843253E+00  7.55890453E-05 -3.45378631E+00
  1.90843253E+00  7.55890453E-05 -3.45378631E+00  1.90843253E+00  7.55890453E-05
 -3.45378631E+00  1.90843253E+00  7.55890453E-05 -3.45378631E+00  1.90843253E+00
  7.55890453E-05 -3.45378631E+00  1.90843253E+00  7.55890453E-05 -6.85881580E+00
 -2.35495781E-01  1.58736995E-04 -6.85881580E+00 -2.35495781E-01  1.58736995E-04
 -6.85881580E+00 -2.35495781E-01  1.58736995E-04 -6.85881580E+00 -2.35495781E-01
  1.58736995E-04 -6.85881580E+00 -2.35495781E-01  1.58736995E-04 -4.67359886E+00
 -4.39574865E+00  1.88972613E-05 -4.67359886E+00 -4.39574865E+00  1.88972613E-05
 -4.67359886E+00 -4.39574865E+00  1.88972613E-05 -4.67359886E+00 -4.39574865E+00
  1.88972613E-05 -4.67359886E+00 -4.39574865E+00  1.88972613E-05  1.92071764E-02
 -4.52117733E+00 -1.54957543E-04  1.92071764E-02 -4.52117733E+00 -1.54957543E-04
  1.92071764E-02 -4.52117733E+00 -1.54957543E-04  1.92071764E-02 -4.52117733E+00
 -1.54957543E-04  1.92071764E-02 -4.52117733E+00 -1.54957543E-04 -4.38249411E+00
  3.73043277E+00  1.58736995E-04 -4.38249411E+00  3.73043277E+00  1.58736995E-04
 -4.38249411E+00  3.73043277E+00  1.58736995E-04 -4.38249411E+00  3.73043277E+00
  1.58736995E-04 -4.38249411E+00  3.73043277E+00  1.58736995E-04  4.00655955E-01
  4.08826186E+00  9.63760328E-05  4.00655955E-01  4.08826186E+00  9.63760328E-05
  4.00655955E-01  4.08826186E+00  9.63760328E-05  4.00655955E-01  4.08826186E+00
  9.63760328E-05  4.00655955E-01  4.08826186E+00  9.63760328E-05  4.00655955E-01
  4.08826186E+00  9.63760328E-05  4.00655955E-01  4.08826186E+00  9.63760328E-05
  4.00655955E-01  4.08826186E+00  9.63760328E-05  2.22147511E+00  3.72233907E+00
  1.81413709E-04  2.22147511E+00  3.72233907E+00  1.81413709E-04  2.22147511E+00
  3.72233907E+00  1.81413709E-04  2.22147511E+00  3.72233907E+00  1.81413709E-04
  2.22147511E+00  3.72233907E+00  1.81413709E-04  3.13020095E+00 -6.82839310E-01
 -2.89128098E-04  3.13020095E+00 -6.82839310E-01 -2.89128098E-04  3.13020095E+00
 -6.82839310E-01 -2.89128098E-04  3.13020095E+00 -6.82839310E-01 -2.89128098E-04
  3.13020095E+00 -6.82839310E-01 -2.89128098E-04  3.13020095E+00 -6.82839310E-01
 -2.89128098E-04  3.13020095E+00 -6.82839310E-01 -2.89128098E-04  3.13020095E+00
 -6.82839310E-01 -2.89128098E-04  4.37962173E+00  1.31455397E+00 -3.40150704E-05
  4.37962173E+00  1.31455397E+00 -3.40150704E-05  4.37962173E+00  1.31455397E+00
 -3.40150704E-05  4.37962173E+00  1.31455397E+00 -3.40150704E-05  4.37962173E+00
  1.31455397E+00 -3.40150704E-05  4.37962173E+00  1.31455397E+00 -3.40150704E-05
  4.37962173E+00  1.31455397E+00 -3.40150704E-05  4.37962173E+00  1.31455397E+00
 -3.40150704E-05  4.12739242E+00 -2.75968046E+00  1.54957543E-04  4.12739242E+00
 -2.75968046E+00  1.54957543E-04  4.12739242E+00 -2.75968046E+00  1.54957543E-04
  4.12739242E+00 -2.75968046E+00  1.54957543E-04  4.12739242E+00 -2.75968046E+00
  1.54957543E-04  4.12739242E+00 -2.75968046E+00  1.54957543E-04  4.12739242E+00
 -2.75968046E+00  1.54957543E-04  4.12739242E+00 -2.75968046E+00  1.54957543E-04
Constraint Structure                       R   N=          45
 -4.81338190E+00 -3.14552474E-01  8.31479498E-05 -3.59018674E+00 -2.66265436E+00
  1.32280829E-05 -9.91871894E-01 -2.74763345E+00 -7.93684976E-05  4.07417395E-01
 -5.02412038E-01 -1.05824663E-04 -8.07944849E-01  1.87455730E+00 -1.88972613E-06
 -3.45378631E+00  1.90843253E+00  7.55890453E-05 -6.85881580E+00 -2.35495781E-01
  1.58736995E-04 -4.67359886E+00 -4.39574865E+00  1.88972613E-05  1.92071764E-02
 -4.52117733E+00 -1.54957543E-04 -4.38249411E+00  3.73043277E+00  1.58736995E-04
  4.00655955E-01  4.08826186E+00  9.63760328E-05  2.22147511E+00  3.72233907E+00
  1.81413709E-04  3.13020095E+00 -6.82839310E-01 -2.89128098E-04  4.37962173E+00
  1.31455397E+00 -3.40150704E-05  4.12739242E+00 -2.75968046E+00  1.54957543E-04
Num ILSW                                   I              100
ILSW                                       I   N=         100
           0           0           0           1           2           0
           0           0           0           0         402          -1
           0           0           0           0           0           0
           0           0           0           0           1           0
           1           1           0           0           0           0
           0           0      100000           0          -1           0
           0           0           0           0           0           0
           0           0           0           1           0           0
           0           0           1           0           0           0
           0           0           4          40           0           0
           0           0           5           0           0           0
           0           0           0           0           0           0
           0           0           0           0           0           0
           0           0           0           0           0           0
           0           0           0           0           0           0
           0           0           0           0           0           0
           0           0           0           0
Num RLSW                                   I               40
RLSW                                       R   N=          40
  8.00000000E-01  7.20000000E-01  1.00000000E+00  8.10000000E-01  2.00000000E-01
  0.00000000E+00  0.00000000E+00  1.00000000E+00  0.00000000E+00  0.00000000E+00
  0.00000000E+00  0.00000000E+00  1.00000000E+00  0.00000000E+00  0.00000000E+00
  0.00000000E+00  0.00000000E+00  1.00000000E+00  0.00000000E+00  0.00000000E+00
  0.00000000E+00  0.00000000E+00  1.00000000E+00  0.00000000E+00  0.00000000E+00
  0.00000000E+00  0.00000000E+00  1.00000000E+00  0.00000000E+00  0.00000000E+00
  0.00000000E+00  0.00000000E+00  1.00000000E+00  0.00000000E+00  0.00000000E+00
  0.00000000E+00  0.00000000E+00  0.00000000E+00  1.00000000E+00  1.00000000E+00
MxBond                                     I                3
NBond                                      I   N=          15
           3           3           3           3           3           3
           1           1           1           1           2           1
           3           1           1
IBond                                      I   N=          45
           2           6           7           1           3           8
           2           4           9           3           5          13
           4           6          11           1           5          10
           1           0           0           2           0           0
           3           0           0           6           0           0
           5          12           0          11           0           0
           4          14          15          13           0           0
          13           0           0
RBond                                      R   N=          45
  1.50000000E+00  1.50000000E+00  1.00000000E+00  1.50000000E+00  1.50000000E+00
  1.00000000E+00  1.50000000E+00  1.50000000E+00  1.00000000E+00  1.50000000E+00
  1.50000000E+00  1.00000000E+00  1.50000000E+00  1.50000000E+00  1.50000000E+00
  1.50000000E+00  1.50000000E+00  1.00000000E+00  1.00000000E+00  0.00000000E+00
  0.00000000E+00  1.00000000E+00  0.00000000E+00  0.00000000E+00  1.00000000E+00
  0.00000000E+00  0.00000000E+00  1.00000000E+00  0.00000000E+00  0.00000000E+00
  1.50000000E+00  1.00000000E+00  0.00000000E+00  1.00000000E+00  0.00000000E+00
  0.00000000E+00  1.00000000E+00  2.00000000E+00  2.00000000E+00  2.00000000E+00
  0.00000000E+00  0.00000000E+00  2.00000000E+00  0.00000000E+00  0.00000000E+00
Virial Ratio                               R      2.003755385015169E+00
SCF Energy                                 R     -5.121621581187825E+02
Total Energy                               R     -5.121621581187825E+02
RMS Force                                  R      1.345955092887045E-04
RMS Density                                R      5.010503338991200E-09
External E-field                           R   N=          35
  0.00000000E+00  0.00000000E+00  0.00000000E+00  0.00000000E+00  0.00000000E+00
  0.00000000E+00  0.00000000E+00  0.00000000E+00  0.00000000E+00  0.00000000E+00
  0.00000000E+00  0.00000000E+00  0.00000000E+00  0.00000000E+00  0.00000000E+00
  0.00000000E+00  0.00000000E+00  0.00000000E+00  0.00000000E+00  0.00000000E+00
  0.00000000E+00  0.00000000E+00  0.00000000E+00  0.00000000E+00  0.00000000E+00
  0.00000000E+00  0.00000000E+00  0.00000000E+00  0.00000000E+00  0.00000000E+00
  0.00000000E+00  0.00000000E+00  0.00000000E+00  0.00000000E+00  0.00000000E+00
IOpCl                                      I                0
IROHF                                      I                0
Alpha Orbital Energies                     R   N=         374
 -1.91787192E+01 -1.91775910E+01 -1.91753142E+01 -1.45729065E+01 -1.02803245E+01